
     Program PWSCF v.6.1 starts on 29Feb2020 at 20:25:40 

     This program is part of the open-source Quantum ESPRESSO suite
     for quantum simulation of materials; please cite
         "P. Giannozzi et al., J. Phys.:Condens. Matter 21 395502 (2009);
          URL http://www.quantum-espresso.org", 
     in publications or presentations arising from this work. More details at
     http://www.quantum-espresso.org/quote

     Parallel version (MPI), running on    84 processors
     K-points division:     npool     =       2
     R & G space division:  proc/nbgrp/npool/nimage =      42
     Reading input from aiida.in

     Current dimensions of program PWSCF are:
     Max number of different atomic species (ntypx) = 10
     Max number of k-points (npk) =  40000
     Max angular momentum in pseudopotentials (lmaxx) =  3
               file B.pbe-n-kjpaw_psl.0.1.UPF: wavefunction(s)  2P renormalized
               file C.pbe-n-kjpaw_psl.1.0.0.UPF: wavefunction(s)  2S 2P renormalized

     Subspace diagonalization in iterative solution of the eigenvalue problem:
     a serial algorithm will be used

 
     Parallelization info
     --------------------
     sticks:   dense  smooth     PW     G-vecs:    dense   smooth      PW
     Min         794     398    102               117522    41556    5460
     Max         795     399    103               117531    41561    5467
     Sum       33373   16729   4303              4936121  1745425  229441
 


     bravais-lattice index     =            0
     lattice parameter (alat)  =      33.1932  a.u.
     unit-cell volume          =   31672.2715 (a.u.)^3
     number of atoms/cell      =           98
     number of atomic types    =            3
     number of electrons       =       392.00
     number of Kohn-Sham states=          235
     kinetic-energy cutoff     =      55.0000  Ry
     charge density cutoff     =     440.0000  Ry
     convergence threshold     =      1.0E-09
     mixing beta               =       0.3000
     number of iterations used =            8  plain     mixing
     Exchange-correlation      = PBE ( 1  4  3  4 0 0)
     nstep                     =          200


     celldm(1)=  33.193231  celldm(2)=   0.000000  celldm(3)=   0.000000
     celldm(4)=   0.000000  celldm(5)=   0.000000  celldm(6)=   0.000000

     crystal axes: (cart. coord. in units of alat)
               a(1) = (   1.000000   0.000000   0.000000 )  
               a(2) = (  -0.500000   0.866025   0.000000 )  
               a(3) = (   0.000000   0.000000   1.000000 )  

     reciprocal axes: (cart. coord. in units 2 pi/alat)
               b(1) = (  1.000000  0.577350  0.000000 )  
               b(2) = (  0.000000  1.154701  0.000000 )  
               b(3) = (  0.000000  0.000000  1.000000 )  


     PseudoPot. # 1 for  B read from file:
     ./pseudo/B.pbe-n-kjpaw_psl.0.1.UPF
     MD5 check sum: b4345a612e0782cca08559f453f3313f
     Pseudo is Projector augmented-wave + core cor, Zval =  3.0
     Generated using "atomic" code by A. Dal Corso  v.5.0.99 svn rev. 10869
     Shape of augmentation charge: BESSEL
     Using radial grid of 1059 points,  4 beta functions with: 
                l(1) =   0
                l(2) =   0
                l(3) =   1
                l(4) =   1
     Q(r) pseudized with 0 coefficients 


     PseudoPot. # 2 for  C read from file:
     ./pseudo/C.pbe-n-kjpaw_psl.1.0.0.UPF
     MD5 check sum: 5d2aebdfa2cae82b50a7e79e9516da0f
     Pseudo is Projector augmented-wave + core cor, Zval =  4.0
     Generated using "atomic" code by A. Dal Corso  v.5.1
     Shape of augmentation charge: PSQ
     Using radial grid of 1073 points,  4 beta functions with: 
                l(1) =   0
                l(2) =   0
                l(3) =   1
                l(4) =   1
     Q(r) pseudized with 0 coefficients 


     PseudoPot. # 3 for  N read from file:
     ./pseudo/N.pbe.theos.UPF
     MD5 check sum: 1fde47ee573fe9ed3106b9b4217eb757
     Pseudo is Ultrasoft + core correction, Zval =  5.0
     Generated using "atomic" code by A. Dal Corso  v.5.1
     Using radial grid of 1085 points,  4 beta functions with: 
                l(1) =   0
                l(2) =   0
                l(3) =   1
                l(4) =   1
     Q(r) pseudized with 0 coefficients 


     atomic species   valence    mass     pseudopotential
        B              3.00    10.81100      B( 1.00)
        C              4.00    12.01070      C( 1.00)
        N              5.00    14.00670      N( 1.00)

     Starting magnetic structure 
     atomic species   magnetization
        B            0.400
        C            0.000
        N            0.000

      2 Sym. Ops. (no inversion) found
          (note:  4 additional sym.ops. were found but ignored
           their fractional translations are incommensurate with FFT grid)

                                    s                        frac. trans.

      isym =  1     identity                                     

 cryst.   s( 1) = (     1          0          0      )
                  (     0          1          0      )
                  (     0          0          1      )

 cart.    s( 1) = (  1.0000000  0.0000000  0.0000000 )
                  (  0.0000000  1.0000000  0.0000000 )
                  (  0.0000000  0.0000000  1.0000000 )


      isym =  2     inv. 180 deg rotation - cart. axis [1,0,0]   

 cryst.   s( 2) = (    -1          0          0      )
                  (     1          1          0      )
                  (     0          0          1      )

 cart.    s( 2) = ( -1.0000000  0.0000000  0.0000000 )
                  (  0.0000000  1.0000000  0.0000000 )
                  (  0.0000000  0.0000000  1.0000000 )


   Cartesian axes

     site n.     atom                  positions (alat units)
         1           N   tau(   1) = (   0.0714286   0.0412393   0.5693107  )
         2           B   tau(   2) = (  -0.0714286   0.2061965   0.5693107  )
         3           N   tau(   3) = (   0.0000000   0.1649572   0.5693107  )
         4           B   tau(   4) = (  -0.1428571   0.3299144   0.5693107  )
         5           N   tau(   5) = (  -0.0714286   0.2886751   0.5693107  )
         6           B   tau(   6) = (  -0.2142857   0.4536324   0.5693107  )
         7           N   tau(   7) = (  -0.1428571   0.4123930   0.5693107  )
         8           B   tau(   8) = (  -0.2857143   0.5773503   0.5693107  )
         9           N   tau(   9) = (  -0.2142857   0.5361110   0.5693107  )
        10           B   tau(  10) = (  -0.3571429   0.7010682   0.5693107  )
        11           N   tau(  11) = (  -0.2857143   0.6598289   0.5693107  )
        12           B   tau(  12) = (  -0.4285714   0.8247861   0.5693107  )
        13           N   tau(  13) = (  -0.3571429   0.7835468   0.5693107  )
        14           B   tau(  14) = (   0.1428571   0.0824786   0.5693107  )
        15           N   tau(  15) = (   0.2142857   0.0412393   0.5693107  )
        16           B   tau(  16) = (   0.0714286   0.2061965   0.5693107  )
        17           N   tau(  17) = (   0.1428571   0.1649572   0.5693107  )
        18           B   tau(  18) = (   0.0000000   0.3299144   0.5693107  )
        19           N   tau(  19) = (   0.0714286   0.2886751   0.5693107  )
        20           B   tau(  20) = (  -0.0714286   0.4536324   0.5693107  )
        21           N   tau(  21) = (   0.0000000   0.4123930   0.5693107  )
        22           B   tau(  22) = (  -0.1428571   0.5773503   0.5693107  )
        23           N   tau(  23) = (  -0.0714286   0.5361110   0.5693107  )
        24           B   tau(  24) = (  -0.2142857   0.7010682   0.5693107  )
        25           N   tau(  25) = (  -0.1428571   0.6598289   0.5693107  )
        26           B   tau(  26) = (  -0.2857143   0.8247861   0.5693107  )
        27           N   tau(  27) = (  -0.2142857   0.7835468   0.5693107  )
        28           B   tau(  28) = (   0.2857143   0.0824786   0.5693107  )
        29           N   tau(  29) = (   0.3571429   0.0412393   0.5693107  )
        30           B   tau(  30) = (   0.2142857   0.2061965   0.5693107  )
        31           N   tau(  31) = (   0.2857143   0.1649572   0.5693107  )
        32           B   tau(  32) = (   0.1428571   0.3299144   0.5693107  )
        33           N   tau(  33) = (   0.2142857   0.2886751   0.5693107  )
        34           B   tau(  34) = (   0.0714286   0.4536324   0.5693107  )
        35           N   tau(  35) = (   0.1428571   0.4123930   0.5693107  )
        36           B   tau(  36) = (   0.0000000   0.5773503   0.5693107  )
        37           N   tau(  37) = (   0.0714286   0.5361110   0.5693107  )
        38           B   tau(  38) = (  -0.0714286   0.7010682   0.5693107  )
        39           N   tau(  39) = (   0.0000000   0.6598289   0.5693107  )
        40           B   tau(  40) = (  -0.1428571   0.8247861   0.5693107  )
        41           N   tau(  41) = (  -0.0714286   0.7835468   0.5693107  )
        42           B   tau(  42) = (   0.4285714   0.0824786   0.5693107  )
        43           N   tau(  43) = (   0.5000000   0.0412393   0.5693107  )
        44           B   tau(  44) = (   0.3571429   0.2061965   0.5693107  )
        45           N   tau(  45) = (   0.4285714   0.1649572   0.5693107  )
        46           B   tau(  46) = (   0.2857143   0.3299144   0.5693107  )
        47           N   tau(  47) = (   0.3571429   0.2886751   0.5693107  )
        48           B   tau(  48) = (   0.2142857   0.4536324   0.5693107  )
        49           N   tau(  49) = (   0.2857143   0.4123930   0.5693107  )
        50           B   tau(  50) = (   0.1428571   0.5773503   0.5693107  )
        51           N   tau(  51) = (   0.2142857   0.5361110   0.5693107  )
        52           B   tau(  52) = (   0.0714286   0.7010682   0.5693107  )
        53           N   tau(  53) = (   0.1428571   0.6598289   0.5693107  )
        54           B   tau(  54) = (   0.0000000   0.8247861   0.5693107  )
        55           N   tau(  55) = (   0.0714286   0.7835468   0.5693107  )
        56           B   tau(  56) = (   0.5714286   0.0824786   0.5693107  )
        57           N   tau(  57) = (   0.6428571   0.0412393   0.5693107  )
        58           B   tau(  58) = (   0.5000000   0.2061965   0.5693107  )
        59           N   tau(  59) = (   0.5714286   0.1649572   0.5693107  )
        60           B   tau(  60) = (   0.4285714   0.3299144   0.5693107  )
        61           N   tau(  61) = (   0.5000000   0.2886751   0.5693107  )
        62           B   tau(  62) = (   0.3571429   0.4536324   0.5693107  )
        63           N   tau(  63) = (   0.4285714   0.4123930   0.5693107  )
        64           B   tau(  64) = (   0.2857143   0.5773503   0.5693107  )
        65           N   tau(  65) = (   0.3571429   0.5361110   0.5693107  )
        66           B   tau(  66) = (   0.2142857   0.7010682   0.5693107  )
        67           N   tau(  67) = (   0.2857143   0.6598289   0.5693107  )
        68           B   tau(  68) = (   0.1428571   0.8247861   0.5693107  )
        69           N   tau(  69) = (   0.2142857   0.7835468   0.5693107  )
        70           B   tau(  70) = (   0.7142857   0.0824786   0.5693107  )
        71           N   tau(  71) = (   0.7857143   0.0412393   0.5693107  )
        72           B   tau(  72) = (   0.6428571   0.2061965   0.5693107  )
        73           N   tau(  73) = (   0.7142857   0.1649572   0.5693107  )
        74           B   tau(  74) = (   0.5714286   0.3299144   0.5693107  )
        75           N   tau(  75) = (   0.6428571   0.2886751   0.5693107  )
        76           B   tau(  76) = (   0.5000000   0.4536324   0.5693107  )
        77           N   tau(  77) = (   0.5714286   0.4123930   0.5693107  )
        78           B   tau(  78) = (   0.4285714   0.5773503   0.5693107  )
        79           N   tau(  79) = (   0.5000000   0.5361110   0.5693107  )
        80           B   tau(  80) = (   0.3571429   0.7010682   0.5693107  )
        81           N   tau(  81) = (   0.4285714   0.6598289   0.5693107  )
        82           B   tau(  82) = (   0.2857143   0.8247861   0.5693107  )
        83           N   tau(  83) = (   0.3571429   0.7835468   0.5693107  )
        84           B   tau(  84) = (   0.8571429   0.0824786   0.5693107  )
        85           N   tau(  85) = (   0.9285714   0.0412393   0.5693107  )
        86           B   tau(  86) = (   0.7857143   0.2061965   0.5693107  )
        87           N   tau(  87) = (   0.8571429   0.1649572   0.5693107  )
        88           B   tau(  88) = (   0.7142857   0.3299144   0.5693107  )
        89           N   tau(  89) = (   0.7857143   0.2886751   0.5693107  )
        90           B   tau(  90) = (   0.6428571   0.4536324   0.5693107  )
        91           N   tau(  91) = (   0.7142857   0.4123930   0.5693107  )
        92           B   tau(  92) = (   0.5714286   0.5773503   0.5693107  )
        93           N   tau(  93) = (   0.6428571   0.5361110   0.5693107  )
        94           B   tau(  94) = (   0.5000000   0.7010682   0.5693107  )
        95           N   tau(  95) = (   0.5714286   0.6598289   0.5693107  )
        96           B   tau(  96) = (   0.4285714   0.8247861   0.5693107  )
        97           N   tau(  97) = (   0.5000000   0.7835468   0.5693107  )
        98           C   tau(  98) = (   0.0000000   0.0824786   0.5693107  )

   Crystallographic axes

     site n.     atom                  positions (cryst. coord.)
         1           N   tau(   1) = (  0.0952381  0.0476190  0.5693107  )
         2           B   tau(   2) = (  0.0476190  0.2380952  0.5693107  )
         3           N   tau(   3) = (  0.0952381  0.1904762  0.5693107  )
         4           B   tau(   4) = (  0.0476190  0.3809524  0.5693107  )
         5           N   tau(   5) = (  0.0952381  0.3333333  0.5693107  )
         6           B   tau(   6) = (  0.0476190  0.5238095  0.5693107  )
         7           N   tau(   7) = (  0.0952381  0.4761905  0.5693107  )
         8           B   tau(   8) = (  0.0476190  0.6666667  0.5693107  )
         9           N   tau(   9) = (  0.0952381  0.6190476  0.5693107  )
        10           B   tau(  10) = (  0.0476190  0.8095238  0.5693107  )
        11           N   tau(  11) = (  0.0952381  0.7619048  0.5693107  )
        12           B   tau(  12) = (  0.0476190  0.9523810  0.5693107  )
        13           N   tau(  13) = (  0.0952381  0.9047619  0.5693107  )
        14           B   tau(  14) = (  0.1904762  0.0952381  0.5693107  )
        15           N   tau(  15) = (  0.2380952  0.0476190  0.5693107  )
        16           B   tau(  16) = (  0.1904762  0.2380952  0.5693107  )
        17           N   tau(  17) = (  0.2380952  0.1904762  0.5693107  )
        18           B   tau(  18) = (  0.1904762  0.3809524  0.5693107  )
        19           N   tau(  19) = (  0.2380952  0.3333333  0.5693107  )
        20           B   tau(  20) = (  0.1904762  0.5238095  0.5693107  )
        21           N   tau(  21) = (  0.2380952  0.4761905  0.5693107  )
        22           B   tau(  22) = (  0.1904762  0.6666667  0.5693107  )
        23           N   tau(  23) = (  0.2380952  0.6190476  0.5693107  )
        24           B   tau(  24) = (  0.1904762  0.8095238  0.5693107  )
        25           N   tau(  25) = (  0.2380952  0.7619048  0.5693107  )
        26           B   tau(  26) = (  0.1904762  0.9523810  0.5693107  )
        27           N   tau(  27) = (  0.2380952  0.9047619  0.5693107  )
        28           B   tau(  28) = (  0.3333333  0.0952381  0.5693107  )
        29           N   tau(  29) = (  0.3809524  0.0476190  0.5693107  )
        30           B   tau(  30) = (  0.3333333  0.2380952  0.5693107  )
        31           N   tau(  31) = (  0.3809524  0.1904762  0.5693107  )
        32           B   tau(  32) = (  0.3333333  0.3809524  0.5693107  )
        33           N   tau(  33) = (  0.3809524  0.3333333  0.5693107  )
        34           B   tau(  34) = (  0.3333333  0.5238095  0.5693107  )
        35           N   tau(  35) = (  0.3809524  0.4761905  0.5693107  )
        36           B   tau(  36) = (  0.3333333  0.6666667  0.5693107  )
        37           N   tau(  37) = (  0.3809524  0.6190476  0.5693107  )
        38           B   tau(  38) = (  0.3333333  0.8095238  0.5693107  )
        39           N   tau(  39) = (  0.3809524  0.7619048  0.5693107  )
        40           B   tau(  40) = (  0.3333333  0.9523810  0.5693107  )
        41           N   tau(  41) = (  0.3809524  0.9047619  0.5693107  )
        42           B   tau(  42) = (  0.4761905  0.0952381  0.5693107  )
        43           N   tau(  43) = (  0.5238095  0.0476190  0.5693107  )
        44           B   tau(  44) = (  0.4761905  0.2380952  0.5693107  )
        45           N   tau(  45) = (  0.5238095  0.1904762  0.5693107  )
        46           B   tau(  46) = (  0.4761905  0.3809524  0.5693107  )
        47           N   tau(  47) = (  0.5238095  0.3333333  0.5693107  )
        48           B   tau(  48) = (  0.4761905  0.5238095  0.5693107  )
        49           N   tau(  49) = (  0.5238095  0.4761905  0.5693107  )
        50           B   tau(  50) = (  0.4761905  0.6666667  0.5693107  )
        51           N   tau(  51) = (  0.5238095  0.6190476  0.5693107  )
        52           B   tau(  52) = (  0.4761905  0.8095238  0.5693107  )
        53           N   tau(  53) = (  0.5238095  0.7619048  0.5693107  )
        54           B   tau(  54) = (  0.4761905  0.9523810  0.5693107  )
        55           N   tau(  55) = (  0.5238095  0.9047619  0.5693107  )
        56           B   tau(  56) = (  0.6190476  0.0952381  0.5693107  )
        57           N   tau(  57) = (  0.6666667  0.0476190  0.5693107  )
        58           B   tau(  58) = (  0.6190476  0.2380952  0.5693107  )
        59           N   tau(  59) = (  0.6666667  0.1904762  0.5693107  )
        60           B   tau(  60) = (  0.6190476  0.3809524  0.5693107  )
        61           N   tau(  61) = (  0.6666667  0.3333333  0.5693107  )
        62           B   tau(  62) = (  0.6190476  0.5238095  0.5693107  )
        63           N   tau(  63) = (  0.6666667  0.4761905  0.5693107  )
        64           B   tau(  64) = (  0.6190476  0.6666667  0.5693107  )
        65           N   tau(  65) = (  0.6666667  0.6190476  0.5693107  )
        66           B   tau(  66) = (  0.6190476  0.8095238  0.5693107  )
        67           N   tau(  67) = (  0.6666667  0.7619048  0.5693107  )
        68           B   tau(  68) = (  0.6190476  0.9523810  0.5693107  )
        69           N   tau(  69) = (  0.6666667  0.9047619  0.5693107  )
        70           B   tau(  70) = (  0.7619048  0.0952381  0.5693107  )
        71           N   tau(  71) = (  0.8095238  0.0476190  0.5693107  )
        72           B   tau(  72) = (  0.7619048  0.2380952  0.5693107  )
        73           N   tau(  73) = (  0.8095238  0.1904762  0.5693107  )
        74           B   tau(  74) = (  0.7619048  0.3809524  0.5693107  )
        75           N   tau(  75) = (  0.8095238  0.3333333  0.5693107  )
        76           B   tau(  76) = (  0.7619048  0.5238095  0.5693107  )
        77           N   tau(  77) = (  0.8095238  0.4761905  0.5693107  )
        78           B   tau(  78) = (  0.7619048  0.6666667  0.5693107  )
        79           N   tau(  79) = (  0.8095238  0.6190476  0.5693107  )
        80           B   tau(  80) = (  0.7619048  0.8095238  0.5693107  )
        81           N   tau(  81) = (  0.8095238  0.7619048  0.5693107  )
        82           B   tau(  82) = (  0.7619048  0.9523810  0.5693107  )
        83           N   tau(  83) = (  0.8095238  0.9047619  0.5693107  )
        84           B   tau(  84) = (  0.9047619  0.0952381  0.5693107  )
        85           N   tau(  85) = (  0.9523810  0.0476190  0.5693107  )
        86           B   tau(  86) = (  0.9047619  0.2380952  0.5693107  )
        87           N   tau(  87) = (  0.9523810  0.1904762  0.5693107  )
        88           B   tau(  88) = (  0.9047619  0.3809524  0.5693107  )
        89           N   tau(  89) = (  0.9523810  0.3333333  0.5693107  )
        90           B   tau(  90) = (  0.9047619  0.5238095  0.5693107  )
        91           N   tau(  91) = (  0.9523810  0.4761905  0.5693107  )
        92           B   tau(  92) = (  0.9047619  0.6666667  0.5693107  )
        93           N   tau(  93) = (  0.9523810  0.6190476  0.5693107  )
        94           B   tau(  94) = (  0.9047619  0.8095238  0.5693107  )
        95           N   tau(  95) = (  0.9523810  0.7619048  0.5693107  )
        96           B   tau(  96) = (  0.9047619  0.9523810  0.5693107  )
        97           N   tau(  97) = (  0.9523810  0.9047619  0.5693107  )
        98           C   tau(  98) = (  0.0476190  0.0952381  0.5693107  )

     number of k points=     4  Marzari-Vanderbilt smearing, width (Ry)=  0.0050
                       cart. coord. in units 2pi/alat
        k(    1) = (   0.0000000   0.0000000   0.0000000), wk =   0.1111111
        k(    2) = (   0.0000000   0.3849002   0.0000000), wk =   0.2222222
        k(    3) = (   0.3333333   0.5773503   0.0000000), wk =   0.2222222
        k(    4) = (   0.3333333  -0.1924501   0.0000000), wk =   0.4444444

                       cryst. coord.
        k(    1) = (   0.0000000   0.0000000   0.0000000), wk =   0.1111111
        k(    2) = (   0.0000000   0.3333333   0.0000000), wk =   0.2222222
        k(    3) = (   0.3333333   0.3333333   0.0000000), wk =   0.2222222
        k(    4) = (   0.3333333  -0.3333333   0.0000000), wk =   0.4444444

     Dense  grid:  4936121 G-vectors     FFT dimensions: ( 225, 225, 225)

     Smooth grid:  1745425 G-vectors     FFT dimensions: ( 160, 160, 160)

     Estimated max dynamical RAM per process >     452.42MB

     Estimated total allocated dynamical RAM >   38003.55MB
     Generating pointlists ...
     new r_m :   0.0340 (alat units)  1.1293 (a.u.) for type    1
     new r_m :   0.0340 (alat units)  1.1293 (a.u.) for type    2
     new r_m :   0.0340 (alat units)  1.1293 (a.u.) for type    3

     Check: negative/imaginary core charge=   -0.000001    0.000000

     Initial potential from superposition of free atoms
     Check: negative starting charge=(component1):   -0.000458
     Check: negative starting charge=(component2):   -0.000440

     starting charge  392.98598, renormalised to  392.00000

     negative rho (up, down):  4.572E-04 4.390E-04
     Starting wfc are  392 randomized atomic wfcs
     Checking if some PAW data can be deallocated... 
       node    0, deallocated PAW data for type:  2
       node    1, deallocated PAW data for type:  2
       node    2, deallocated PAW data for type:  2
       node    3, deallocated PAW data for type:  2
       node    4, deallocated PAW data for type:  2
       node    5, deallocated PAW data for type:  2
       node    6, deallocated PAW data for type:  2
       node    7, deallocated PAW data for type:  2
       node    8, deallocated PAW data for type:  2
       node    9, deallocated PAW data for type:  2
       node   10, deallocated PAW data for type:  2
       node   11, deallocated PAW data for type:  2
       node   12, deallocated PAW data for type:  2
       node   13, deallocated PAW data for type:  2
       node   14, deallocated PAW data for type:  1
       node   14, deallocated PAW data for type:  2
       node   15, deallocated PAW data for type:  2
       node   16, deallocated PAW data for type:  1
       node   16, deallocated PAW data for type:  2
       node   17, deallocated PAW data for type:  2
       node   18, deallocated PAW data for type:  1
       node   18, deallocated PAW data for type:  2
       node   19, deallocated PAW data for type:  2
       node   20, deallocated PAW data for type:  1
       node   20, deallocated PAW data for type:  2
       node   21, deallocated PAW data for type:  2
       node   22, deallocated PAW data for type:  1
       node   22, deallocated PAW data for type:  2
       node   23, deallocated PAW data for type:  2
       node   24, deallocated PAW data for type:  1
       node   24, deallocated PAW data for type:  2
       node   25, deallocated PAW data for type:  2
       node   26, deallocated PAW data for type:  1
       node   26, deallocated PAW data for type:  2
       node   27, deallocated PAW data for type:  2
       node   28, deallocated PAW data for type:  1
       node   28, deallocated PAW data for type:  2
       node   29, deallocated PAW data for type:  2
       node   30, deallocated PAW data for type:  1
       node   30, deallocated PAW data for type:  2
       node   31, deallocated PAW data for type:  2
       node   32, deallocated PAW data for type:  1
       node   32, deallocated PAW data for type:  2
       node   33, deallocated PAW data for type:  2
       node   34, deallocated PAW data for type:  1
       node   34, deallocated PAW data for type:  2
       node   35, deallocated PAW data for type:  2
       node   36, deallocated PAW data for type:  1
       node   36, deallocated PAW data for type:  2
       node   37, deallocated PAW data for type:  2
       node   38, deallocated PAW data for type:  1
       node   38, deallocated PAW data for type:  2
       node   39, deallocated PAW data for type:  2
       node   40, deallocated PAW data for type:  1
       node   40, deallocated PAW data for type:  2
       node   41, deallocated PAW data for type:  2
       node   42, deallocated PAW data for type:  1
       node   42, deallocated PAW data for type:  2
       node   43, deallocated PAW data for type:  2
       node   44, deallocated PAW data for type:  1
       node   44, deallocated PAW data for type:  2
       node   45, deallocated PAW data for type:  2
       node   46, deallocated PAW data for type:  1
       node   46, deallocated PAW data for type:  2
       node   47, deallocated PAW data for type:  2
       node   48, deallocated PAW data for type:  1
       node   48, deallocated PAW data for type:  2
       node   49, deallocated PAW data for type:  2
       node   50, deallocated PAW data for type:  1
       node   50, deallocated PAW data for type:  2
       node   51, deallocated PAW data for type:  2
       node   52, deallocated PAW data for type:  1
       node   52, deallocated PAW data for type:  2
       node   53, deallocated PAW data for type:  2
       node   54, deallocated PAW data for type:  1
       node   54, deallocated PAW data for type:  2
       node   55, deallocated PAW data for type:  2
       node   56, deallocated PAW data for type:  1
       node   56, deallocated PAW data for type:  2
       node   57, deallocated PAW data for type:  2
       node   58, deallocated PAW data for type:  1
       node   58, deallocated PAW data for type:  2
       node   59, deallocated PAW data for type:  2
       node   60, deallocated PAW data for type:  1
       node   60, deallocated PAW data for type:  2
       node   61, deallocated PAW data for type:  2
       node   62, deallocated PAW data for type:  1
       node   62, deallocated PAW data for type:  2
       node   63, deallocated PAW data for type:  2
       node   64, deallocated PAW data for type:  1
       node   64, deallocated PAW data for type:  2
       node   65, deallocated PAW data for type:  2
       node   66, deallocated PAW data for type:  1
       node   66, deallocated PAW data for type:  2
       node   67, deallocated PAW data for type:  2
       node   68, deallocated PAW data for type:  1
       node   68, deallocated PAW data for type:  2
       node   69, deallocated PAW data for type:  2
       node   70, deallocated PAW data for type:  1
       node   70, deallocated PAW data for type:  2
       node   71, deallocated PAW data for type:  2
       node   72, deallocated PAW data for type:  1
       node   72, deallocated PAW data for type:  2
       node   73, deallocated PAW data for type:  2
       node   74, deallocated PAW data for type:  1
       node   74, deallocated PAW data for type:  2
       node   75, deallocated PAW data for type:  2
       node   76, deallocated PAW data for type:  1
       node   76, deallocated PAW data for type:  2
       node   77, deallocated PAW data for type:  2
       node   78, deallocated PAW data for type:  1
       node   78, deallocated PAW data for type:  2
       node   79, deallocated PAW data for type:  2
       node   80, deallocated PAW data for type:  1
       node   80, deallocated PAW data for type:  2
       node   81, deallocated PAW data for type:  2
       node   82, deallocated PAW data for type:  1
       node   82, deallocated PAW data for type:  2
       node   83, deallocated PAW data for type:  1

     total cpu time spent up to now is       30.5 secs

     per-process dynamical memory:   321.0 Mb

     Self-consistent Calculation

     iteration #  1     ecut=    55.00 Ry     beta=0.30
     Davidson diagonalization with overlap
     ethr =  1.00E-02,  avg # of iterations =  3.0

     negative rho (up, down):  3.212E-04 3.390E-04

     total cpu time spent up to now is       82.7 secs

     total energy              =   -1564.63717206 Ry
     Harris-Foulkes estimate   =   -1572.40376769 Ry
     estimated scf accuracy    <      21.54372117 Ry

     total magnetization       =     0.00 Bohr mag/cell
     absolute magnetization    =     8.25 Bohr mag/cell

     iteration #  2     ecut=    55.00 Ry     beta=0.30
     Davidson diagonalization with overlap
     ethr =  5.50E-03,  avg # of iterations =  2.1

     negative rho (up, down):  6.308E-04 6.740E-04

     total cpu time spent up to now is      118.1 secs

     total energy              =   -1565.39953369 Ry
     Harris-Foulkes estimate   =   -1566.57379539 Ry
     estimated scf accuracy    <       3.66205298 Ry

     total magnetization       =    -0.00 Bohr mag/cell
     absolute magnetization    =     7.75 Bohr mag/cell

     iteration #  3     ecut=    55.00 Ry     beta=0.30
     Davidson diagonalization with overlap
     ethr =  9.34E-04,  avg # of iterations = 15.2

     negative rho (up, down):  9.949E-04 1.048E-03

     total cpu time spent up to now is      199.2 secs

     total energy              =   -1566.32293721 Ry
     Harris-Foulkes estimate   =   -1566.68256055 Ry
     estimated scf accuracy    <       0.96450525 Ry

     total magnetization       =     0.00 Bohr mag/cell
     absolute magnetization    =     5.48 Bohr mag/cell

     iteration #  4     ecut=    55.00 Ry     beta=0.30
     Davidson diagonalization with overlap
     ethr =  2.46E-04,  avg # of iterations = 15.4

     negative rho (up, down):  1.224E-03 1.277E-03

     total cpu time spent up to now is      291.5 secs

     total energy              =   -1566.43582041 Ry
     Harris-Foulkes estimate   =   -1567.01470409 Ry
     estimated scf accuracy    <       1.42465569 Ry

     total magnetization       =    -0.00 Bohr mag/cell
     absolute magnetization    =     3.29 Bohr mag/cell

     iteration #  5     ecut=    55.00 Ry     beta=0.30
     Davidson diagonalization with overlap
     ethr =  2.46E-04,  avg # of iterations =  2.5

     negative rho (up, down):  1.294E-03 1.354E-03

     total cpu time spent up to now is      336.5 secs

     total energy              =   -1566.61621355 Ry
     Harris-Foulkes estimate   =   -1566.62090268 Ry
     estimated scf accuracy    <       0.06780257 Ry

     total magnetization       =    -0.07 Bohr mag/cell
     absolute magnetization    =     2.24 Bohr mag/cell

     iteration #  6     ecut=    55.00 Ry     beta=0.30
     Davidson diagonalization with overlap
     ethr =  1.73E-05,  avg # of iterations = 13.2

     negative rho (up, down):  1.504E-03 1.516E-03

     total cpu time spent up to now is      421.1 secs

     total energy              =   -1566.64670703 Ry
     Harris-Foulkes estimate   =   -1566.63975533 Ry
     estimated scf accuracy    <       0.01088277 Ry

     total magnetization       =    -0.08 Bohr mag/cell
     absolute magnetization    =     2.09 Bohr mag/cell

     iteration #  7     ecut=    55.00 Ry     beta=0.30
     Davidson diagonalization with overlap
     c_bands:  2 eigenvalues not converged
     ethr =  2.78E-06,  avg # of iterations = 13.8

     negative rho (up, down):  1.562E-03 1.562E-03

     total cpu time spent up to now is      499.5 secs

     total energy              =   -1566.65185249 Ry
     Harris-Foulkes estimate   =   -1566.65113080 Ry
     estimated scf accuracy    <       0.00228938 Ry

     total magnetization       =    -0.08 Bohr mag/cell
     absolute magnetization    =     1.16 Bohr mag/cell

     iteration #  8     ecut=    55.00 Ry     beta=0.30
     Davidson diagonalization with overlap
     ethr =  5.84E-07,  avg # of iterations =  7.1

     negative rho (up, down):  1.566E-03 1.574E-03

     total cpu time spent up to now is      555.1 secs

     total energy              =   -1566.65289330 Ry
     Harris-Foulkes estimate   =   -1566.65240430 Ry
     estimated scf accuracy    <       0.00056766 Ry

     total magnetization       =    -0.07 Bohr mag/cell
     absolute magnetization    =     0.81 Bohr mag/cell

     iteration #  9     ecut=    55.00 Ry     beta=0.30
     Davidson diagonalization with overlap
     ethr =  1.45E-07,  avg # of iterations =  3.6

     negative rho (up, down):  1.572E-03 1.582E-03

     total cpu time spent up to now is      618.7 secs

     total energy              =   -1566.65342654 Ry
     Harris-Foulkes estimate   =   -1566.65334533 Ry
     estimated scf accuracy    <       0.00047310 Ry

     total magnetization       =    -0.06 Bohr mag/cell
     absolute magnetization    =     0.41 Bohr mag/cell

     iteration # 10     ecut=    55.00 Ry     beta=0.30
     Davidson diagonalization with overlap
     ethr =  1.21E-07,  avg # of iterations =  2.1

     negative rho (up, down):  1.579E-03 1.588E-03

     total cpu time spent up to now is      660.7 secs

     total energy              =   -1566.65342067 Ry
     Harris-Foulkes estimate   =   -1566.65347905 Ry
     estimated scf accuracy    <       0.00021294 Ry

     total magnetization       =    -0.04 Bohr mag/cell
     absolute magnetization    =     0.27 Bohr mag/cell

     iteration # 11     ecut=    55.00 Ry     beta=0.30
     Davidson diagonalization with overlap
     ethr =  5.43E-08,  avg # of iterations =  3.0

     negative rho (up, down):  1.586E-03 1.593E-03

     total cpu time spent up to now is      720.5 secs

     total energy              =   -1566.65353369 Ry
     Harris-Foulkes estimate   =   -1566.65353245 Ry
     estimated scf accuracy    <       0.00000995 Ry

     total magnetization       =    -0.01 Bohr mag/cell
     absolute magnetization    =     0.06 Bohr mag/cell

     iteration # 12     ecut=    55.00 Ry     beta=0.30
     Davidson diagonalization with overlap
     ethr =  2.54E-09,  avg # of iterations =  4.0

     negative rho (up, down):  1.593E-03 1.598E-03

     total cpu time spent up to now is      776.2 secs

     total energy              =   -1566.65353827 Ry
     Harris-Foulkes estimate   =   -1566.65353937 Ry
     estimated scf accuracy    <       0.00000562 Ry

     total magnetization       =    -0.00 Bohr mag/cell
     absolute magnetization    =     0.01 Bohr mag/cell

     iteration # 13     ecut=    55.00 Ry     beta=0.30
     Davidson diagonalization with overlap
     ethr =  1.43E-09,  avg # of iterations =  1.5

     negative rho (up, down):  1.597E-03 1.601E-03

     total cpu time spent up to now is      811.1 secs

     total energy              =   -1566.65353826 Ry
     Harris-Foulkes estimate   =   -1566.65353863 Ry
     estimated scf accuracy    <       0.00000164 Ry

     total magnetization       =    -0.00 Bohr mag/cell
     absolute magnetization    =     0.01 Bohr mag/cell

     iteration # 14     ecut=    55.00 Ry     beta=0.30
     Davidson diagonalization with overlap
     ethr =  4.19E-10,  avg # of iterations =  3.5

     negative rho (up, down):  1.601E-03 1.603E-03

     total cpu time spent up to now is      867.4 secs

     total energy              =   -1566.65353904 Ry
     Harris-Foulkes estimate   =   -1566.65353903 Ry
     estimated scf accuracy    <       0.00000010 Ry

     total magnetization       =    -0.00 Bohr mag/cell
     absolute magnetization    =     0.00 Bohr mag/cell

     iteration # 15     ecut=    55.00 Ry     beta=0.30
     Davidson diagonalization with overlap
     ethr =  2.45E-11,  avg # of iterations =  3.5

     negative rho (up, down):  1.603E-03 1.604E-03

     total cpu time spent up to now is      922.3 secs

     total energy              =   -1566.65353911 Ry
     Harris-Foulkes estimate   =   -1566.65353909 Ry
     estimated scf accuracy    <       0.00000004 Ry

     total magnetization       =    -0.00 Bohr mag/cell
     absolute magnetization    =     0.00 Bohr mag/cell

     iteration # 16     ecut=    55.00 Ry     beta=0.30
     Davidson diagonalization with overlap
     ethr =  9.24E-12,  avg # of iterations =  3.1

     negative rho (up, down):  1.604E-03 1.606E-03

     total cpu time spent up to now is      970.7 secs

     total energy              =   -1566.65353914 Ry
     Harris-Foulkes estimate   =   -1566.65353912 Ry
     estimated scf accuracy    <          8.7E-09 Ry

     total magnetization       =    -0.00 Bohr mag/cell
     absolute magnetization    =     0.00 Bohr mag/cell

     iteration # 17     ecut=    55.00 Ry     beta=0.30
     Davidson diagonalization with overlap
     ethr =  2.21E-12,  avg # of iterations =  3.0

     negative rho (up, down):  1.605E-03 1.606E-03

     total cpu time spent up to now is     1019.2 secs

     total energy              =   -1566.65353914 Ry
     Harris-Foulkes estimate   =   -1566.65353914 Ry
     estimated scf accuracy    <          4.7E-09 Ry

     total magnetization       =    -0.00 Bohr mag/cell
     absolute magnetization    =     0.00 Bohr mag/cell

     iteration # 18     ecut=    55.00 Ry     beta=0.30
     Davidson diagonalization with overlap
     ethr =  1.19E-12,  avg # of iterations =  3.2

     negative rho (up, down):  1.608E-03 1.608E-03
 
     Magnetic moment per site:
     atom:    1    charge:    2.8338    magn:   -0.0000    constr:    0.0000
     atom:    2    charge:    0.8816    magn:   -0.0000    constr:    0.0000
     atom:    3    charge:    2.8334    magn:   -0.0000    constr:    0.0000
     atom:    4    charge:    0.8799    magn:   -0.0000    constr:    0.0000
     atom:    5    charge:    2.8668    magn:    0.0000    constr:    0.0000
     atom:    6    charge:    0.8803    magn:    0.0000    constr:    0.0000
     atom:    7    charge:    2.8679    magn:   -0.0000    constr:    0.0000
     atom:    8    charge:    0.8803    magn:    0.0000    constr:    0.0000
     atom:    9    charge:    2.8681    magn:   -0.0000    constr:    0.0000
     atom:   10    charge:    0.8802    magn:   -0.0000    constr:    0.0000
     atom:   11    charge:    2.8679    magn:   -0.0000    constr:    0.0000
     atom:   12    charge:    0.8818    magn:   -0.0000    constr:    0.0000
     atom:   13    charge:    2.8670    magn:    0.0000    constr:    0.0000
     atom:   14    charge:    0.8815    magn:   -0.0000    constr:    0.0000
     atom:   15    charge:    2.8670    magn:    0.0000    constr:    0.0000
     atom:   16    charge:    0.8816    magn:   -0.0000    constr:    0.0000
     atom:   17    charge:    2.8657    magn:    0.0000    constr:    0.0000
     atom:   18    charge:    0.8807    magn:   -0.0000    constr:    0.0000
     atom:   19    charge:    2.8668    magn:    0.0000    constr:    0.0000
     atom:   20    charge:    0.8803    magn:    0.0000    constr:    0.0000
     atom:   21    charge:    2.8679    magn:    0.0000    constr:    0.0000
     atom:   22    charge:    0.8803    magn:    0.0000    constr:    0.0000
     atom:   23    charge:    2.8685    magn:   -0.0000    constr:    0.0000
     atom:   24    charge:    0.8804    magn:    0.0000    constr:    0.0000
     atom:   25    charge:    2.8681    magn:   -0.0000    constr:    0.0000
     atom:   26    charge:    0.8810    magn:   -0.0000    constr:    0.0000
     atom:   27    charge:    2.8678    magn:    0.0000    constr:    0.0000
     atom:   28    charge:    0.8800    magn:   -0.0000    constr:    0.0000
     atom:   29    charge:    2.8675    magn:   -0.0000    constr:    0.0000
     atom:   30    charge:    0.8802    magn:   -0.0000    constr:    0.0000
     atom:   31    charge:    2.8670    magn:    0.0000    constr:    0.0000
     atom:   32    charge:    0.8799    magn:   -0.0000    constr:    0.0000
     atom:   33    charge:    2.8671    magn:    0.0000    constr:    0.0000
     atom:   34    charge:    0.8803    magn:    0.0000    constr:    0.0000
     atom:   35    charge:    2.8679    magn:   -0.0000    constr:    0.0000
     atom:   36    charge:    0.8801    magn:    0.0000    constr:    0.0000
     atom:   37    charge:    2.8685    magn:   -0.0000    constr:    0.0000
     atom:   38    charge:    0.8803    magn:    0.0000    constr:    0.0000
     atom:   39    charge:    2.8686    magn:   -0.0000    constr:    0.0000
     atom:   40    charge:    0.8804    magn:    0.0000    constr:    0.0000
     atom:   41    charge:    2.8681    magn:   -0.0000    constr:    0.0000
     atom:   42    charge:    0.8803    magn:    0.0000    constr:    0.0000
     atom:   43    charge:    2.8676    magn:   -0.0000    constr:    0.0000
     atom:   44    charge:    0.8802    magn:    0.0000    constr:    0.0000
     atom:   45    charge:    2.8672    magn:   -0.0000    constr:    0.0000
     atom:   46    charge:    0.8803    magn:    0.0000    constr:    0.0000
     atom:   47    charge:    2.8671    magn:   -0.0000    constr:    0.0000
     atom:   48    charge:    0.8803    magn:    0.0000    constr:    0.0000
     atom:   49    charge:    2.8675    magn:   -0.0000    constr:    0.0000
     atom:   50    charge:    0.8803    magn:    0.0000    constr:    0.0000
     atom:   51    charge:    2.8681    magn:   -0.0000    constr:    0.0000
     atom:   52    charge:    0.8803    magn:    0.0000    constr:    0.0000
     atom:   53    charge:    2.8681    magn:   -0.0000    constr:    0.0000
     atom:   54    charge:    0.8804    magn:    0.0000    constr:    0.0000
     atom:   55    charge:    2.8681    magn:   -0.0000    constr:    0.0000
     atom:   56    charge:    0.8803    magn:    0.0000    constr:    0.0000
     atom:   57    charge:    2.8675    magn:   -0.0000    constr:    0.0000
     atom:   58    charge:    0.8804    magn:    0.0000    constr:    0.0000
     atom:   59    charge:    2.8672    magn:   -0.0000    constr:    0.0000
     atom:   60    charge:    0.8804    magn:    0.0000    constr:    0.0000
     atom:   61    charge:    2.8668    magn:   -0.0000    constr:    0.0000
     atom:   62    charge:    0.8804    magn:    0.0000    constr:    0.0000
     atom:   63    charge:    2.8672    magn:   -0.0000    constr:    0.0000
     atom:   64    charge:    0.8803    magn:    0.0000    constr:    0.0000
     atom:   65    charge:    2.8675    magn:   -0.0000    constr:    0.0000
     atom:   66    charge:    0.8804    magn:    0.0000    constr:    0.0000
     atom:   67    charge:    2.8679    magn:   -0.0000    constr:    0.0000
     atom:   68    charge:    0.8804    magn:    0.0000    constr:    0.0000
     atom:   69    charge:    2.8678    magn:    0.0000    constr:    0.0000
     atom:   70    charge:    0.8800    magn:   -0.0000    constr:    0.0000
     atom:   71    charge:    2.8670    magn:    0.0000    constr:    0.0000
     atom:   72    charge:    0.8802    magn:    0.0000    constr:    0.0000
     atom:   73    charge:    2.8670    magn:    0.0000    constr:    0.0000
     atom:   74    charge:    0.8804    magn:    0.0000    constr:    0.0000
     atom:   75    charge:    2.8671    magn:   -0.0000    constr:    0.0000
     atom:   76    charge:    0.8803    magn:    0.0000    constr:    0.0000
     atom:   77    charge:    2.8672    magn:   -0.0000    constr:    0.0000
     atom:   78    charge:    0.8804    magn:    0.0000    constr:    0.0000
     atom:   79    charge:    2.8673    magn:   -0.0000    constr:    0.0000
     atom:   80    charge:    0.8802    magn:   -0.0000    constr:    0.0000
     atom:   81    charge:    2.8677    magn:    0.0000    constr:    0.0000
     atom:   82    charge:    0.8810    magn:   -0.0000    constr:    0.0000
     atom:   83    charge:    2.8670    magn:    0.0000    constr:    0.0000
     atom:   84    charge:    0.8815    magn:   -0.0000    constr:    0.0000
     atom:   85    charge:    2.8338    magn:   -0.0000    constr:    0.0000
     atom:   86    charge:    0.8802    magn:   -0.0000    constr:    0.0000
     atom:   87    charge:    2.8657    magn:    0.0000    constr:    0.0000
     atom:   88    charge:    0.8803    magn:    0.0000    constr:    0.0000
     atom:   89    charge:    2.8671    magn:    0.0000    constr:    0.0000
     atom:   90    charge:    0.8804    magn:    0.0000    constr:    0.0000
     atom:   91    charge:    2.8675    magn:   -0.0000    constr:    0.0000
     atom:   92    charge:    0.8804    magn:    0.0000    constr:    0.0000
     atom:   93    charge:    2.8675    magn:   -0.0000    constr:    0.0000
     atom:   94    charge:    0.8803    magn:   -0.0000    constr:    0.0000
     atom:   95    charge:    2.8677    magn:    0.0000    constr:    0.0000
     atom:   96    charge:    0.8818    magn:   -0.0000    constr:    0.0000
     atom:   97    charge:    2.8662    magn:    0.0000    constr:    0.0000
     atom:   98    charge:    1.6090    magn:    0.0000    constr:    0.0000

     total cpu time spent up to now is     1068.8 secs

     End of self-consistent calculation

 ------ SPIN UP ------------


          k = 0.0000 0.0000 0.0000 (218275 PWs)   bands (ev):

   -24.3805 -22.3487 -22.3487 -21.9526 -21.6164 -21.6163 -21.4625 -21.4575
   -21.4575 -21.3907 -21.0316 -21.0316 -20.9504 -20.6832 -20.6832 -20.6678
   -20.5784 -20.5784 -20.5569 -20.3324 -20.3324 -20.0644 -19.8814 -19.8814
   -19.8407 -19.7405 -19.6334 -19.6334 -19.5477 -19.5465 -19.5465 -19.3560
   -19.3560 -19.3221 -19.1252 -19.1252 -19.1222 -19.1111 -19.1111 -18.8055
   -18.7985 -18.7985 -18.7710 -18.5834 -18.5834 -18.4921 -18.4892 -18.4857
   -18.4857 -15.8777 -14.1707 -14.1707 -13.2664 -13.2489 -13.2489 -12.9670
   -12.9670 -12.8164 -12.8066 -12.8066 -12.8061 -12.6606 -12.6606 -12.5470
   -12.4445 -12.4273 -12.4273 -11.9937 -11.9937 -11.9903 -11.8581 -11.8581
   -11.7774 -11.7089 -11.6561 -11.6528 -11.6528 -11.6090 -11.6090 -11.4063
   -11.3361 -11.2242 -11.2242 -10.9135 -10.9038 -10.9038 -10.6692 -10.6691
   -10.5093 -10.4140 -10.4140 -10.3369 -10.1839 -10.1839 -10.1509  -9.7597
    -9.6777  -9.6777  -9.5089  -9.5089  -9.4411  -9.4411  -9.4122  -9.3699
    -9.3699  -9.3454  -9.3063  -9.2888  -9.2456  -9.2456  -9.2129  -9.2129
    -9.2095  -9.0479  -9.0376  -9.0376  -9.0106  -9.0106  -9.0080  -9.0072
    -9.0072  -8.8859  -8.5912  -8.5911  -8.5874  -8.5726  -8.4181  -8.4181
    -8.3558  -8.3558  -8.3399  -8.2367  -8.2367  -8.1674  -8.1674  -8.0976
    -8.0646  -7.9573  -7.9573  -7.8377  -7.6800  -7.6762  -7.6762  -7.6711
    -7.6315  -7.6176  -7.6176  -7.6145  -7.6145  -7.5648  -7.5648  -7.5351
    -7.5225  -7.5225  -7.4413  -7.2561  -7.2561  -7.1496  -6.9540  -6.9540
    -6.8504  -6.5936  -6.5936  -6.5522  -6.5127  -6.5127  -6.5084  -6.4003
    -6.4003  -6.3533  -6.3216  -6.2852  -6.2852  -6.2086  -6.2086  -6.2010
    -5.8848  -5.8848  -5.8677  -5.7540  -5.7540  -5.6129  -5.6054  -5.6054
    -5.3828  -5.3828  -5.0657  -5.0611  -5.0393  -5.0393  -4.7885  -4.7885
    -4.6767  -4.6668  -4.6561  -4.6561  -2.3900  -0.0739   0.0630   0.0630
     0.3548   0.3695   0.3695   0.5618   0.6544   0.6934   0.6934   0.7171
     0.7172   0.8361   0.9116   0.9116   0.9769   0.9769   0.9942   1.0196
     1.0808   1.0808   1.2994   1.2994   1.3769   1.4890   1.6079   1.8061
     1.8061   1.9108   1.9108   1.9379   2.0522   2.1370   2.1371   2.1398
     2.1602   2.1684   2.1685

     occupation numbers 
     1.0000   1.0000   1.0000   1.0000   1.0000   1.0000   1.0000   1.0000
     1.0000   1.0000   1.0000   1.0000   1.0000   1.0000   1.0000   1.0000
     1.0000   1.0000   1.0000   1.0000   1.0000   1.0000   1.0000   1.0000
     1.0000   1.0000   1.0000   1.0000   1.0000   1.0000   1.0000   1.0000
     1.0000   1.0000   1.0000   1.0000   1.0000   1.0000   1.0000   1.0000
     1.0000   1.0000   1.0000   1.0000   1.0000   1.0000   1.0000   1.0000
     1.0000   1.0000   1.0000   1.0000   1.0000   1.0000   1.0000   1.0000
     1.0000   1.0000   1.0000   1.0000   1.0000   1.0000   1.0000   1.0000
     1.0000   1.0000   1.0000   1.0000   1.0000   1.0000   1.0000   1.0000
     1.0000   1.0000   1.0000   1.0000   1.0000   1.0000   1.0000   1.0000
     1.0000   1.0000   1.0000   1.0000   1.0000   1.0000   1.0000   1.0000
     1.0000   1.0000   1.0000   1.0000   1.0000   1.0000   1.0000   1.0000
     1.0000   1.0000   1.0000   1.0000   1.0000   1.0000   1.0000   1.0000
     1.0000   1.0000   1.0000   1.0000   1.0000   1.0000   1.0000   1.0000
     1.0000   1.0000   1.0000   1.0000   1.0000   1.0000   1.0000   1.0000
     1.0000   1.0000   1.0000   1.0000   1.0000   1.0000   1.0000   1.0000
     1.0000   1.0000   1.0000   1.0000   1.0000   1.0000   1.0000   1.0000
     1.0000   1.0000   1.0000   1.0000   1.0000   1.0000   1.0000   1.0000
     1.0000   1.0000   1.0000   1.0000   1.0000   1.0000   1.0000   1.0000
     1.0000   1.0000   1.0000   1.0000   1.0000   1.0000   1.0000   1.0000
     1.0000   1.0000   1.0000   1.0000   1.0000   1.0000   1.0000   1.0000
     1.0000   1.0000   1.0000   1.0000   1.0000   1.0000   1.0000   1.0000
     1.0000   1.0000   1.0000   1.0000   1.0000   1.0000   1.0000   1.0000
     1.0000   1.0000   1.0000   1.0000   1.0000   1.0000   1.0000   1.0000
     1.0000   1.0000   1.0000   1.0000   0.0000   0.0000   0.0000   0.0000
     0.0000   0.0000   0.0000   0.0000   0.0000   0.0000   0.0000   0.0000
     0.0000   0.0000   0.0000   0.0000   0.0000   0.0000   0.0000   0.0000
     0.0000   0.0000   0.0000   0.0000   0.0000   0.0000   0.0000   0.0000
     0.0000   0.0000   0.0000   0.0000   0.0000   0.0000   0.0000   0.0000
     0.0000   0.0000   0.0000

          k = 0.0000 0.3849 0.0000 (218166 PWs)   bands (ev):

   -24.3805 -22.3526 -22.3496 -21.9025 -21.7020 -21.6105 -21.5918 -21.4576
   -21.3091 -21.2186 -21.1882 -21.0238 -20.9629 -20.7942 -20.7476 -20.7033
   -20.5728 -20.4862 -20.3548 -20.2894 -20.1879 -20.1106 -20.0617 -19.9657
   -19.9270 -19.7914 -19.6792 -19.6329 -19.5642 -19.5449 -19.4147 -19.4027
   -19.2762 -19.2283 -19.1873 -19.1585 -19.0285 -19.0099 -18.9530 -18.8836
   -18.8492 -18.7913 -18.7690 -18.7398 -18.7302 -18.5271 -18.5246 -18.3809
   -18.3787 -15.8771 -14.1717 -14.1703 -13.2775 -13.2633 -13.1776 -13.0379
   -12.9689 -12.9329 -12.8035 -12.7644 -12.6124 -12.6115 -12.5486 -12.5121
   -12.3778 -12.3769 -12.3068 -12.2651 -12.2070 -12.1868 -12.1730 -12.0346
   -12.0191 -11.6949 -11.5786 -11.5512 -11.5357 -11.3688 -11.3600 -11.3382
   -11.1829 -11.1641 -10.9529 -10.9284 -10.9133 -10.8648 -10.8443 -10.6412
   -10.6182 -10.4641 -10.4630 -10.2607 -10.1615 -10.0369 -10.0071  -9.9766
    -9.8673  -9.8025  -9.7515  -9.6934  -9.6451  -9.5179  -9.4831  -9.4557
    -9.4450  -9.3980  -9.3815  -9.3273  -9.3078  -9.3043  -9.2918  -9.0689
    -9.0645  -8.8960  -8.8913  -8.8568  -8.8349  -8.8298  -8.7195  -8.7192
    -8.6593  -8.6280  -8.6232  -8.6058  -8.5790  -8.5411  -8.5353  -8.4636
    -8.4532  -8.3592  -8.3551  -8.3146  -8.2907  -8.2764  -8.2188  -8.1901
    -8.0908  -8.0647  -7.9526  -7.9421  -7.9250  -7.8682  -7.8627  -7.8439
    -7.7505  -7.7369  -7.6899  -7.6638  -7.6096  -7.4530  -7.4102  -7.3194
    -7.2970  -7.2802  -7.1841  -7.1640  -7.0980  -7.0757  -7.0325  -6.8976
    -6.8545  -6.8450  -6.7995  -6.6869  -6.6774  -6.6644  -6.6498  -6.4334
    -6.3582  -6.2770  -6.2664  -6.2496  -6.1415  -6.1287  -6.0765  -6.0030
    -5.9498  -5.9180  -5.8181  -5.7526  -5.6657  -5.5639  -5.5601  -5.4476
    -5.4165  -5.3371  -5.2052  -5.1661  -5.0657  -5.0504  -5.0077  -5.0073
    -4.7150  -4.7138  -4.4692  -4.4631  -2.3909  -0.0903   0.0676   0.0776
     0.3626   0.3840   0.4270   0.4721   0.6100   0.6540   0.6891   0.6922
     0.7315   0.7462   0.8183   1.0185   1.0419   1.0554   1.0928   1.0977
     1.2279   1.2572   1.2806   1.3982   1.5011   1.5128   1.5558   1.5594
     1.6420   1.6629   1.6833   1.7505   1.8137   1.8686   1.9108   2.0580
     2.0979   2.2110   2.2548

     occupation numbers 
     1.0000   1.0000   1.0000   1.0000   1.0000   1.0000   1.0000   1.0000
     1.0000   1.0000   1.0000   1.0000   1.0000   1.0000   1.0000   1.0000
     1.0000   1.0000   1.0000   1.0000   1.0000   1.0000   1.0000   1.0000
     1.0000   1.0000   1.0000   1.0000   1.0000   1.0000   1.0000   1.0000
     1.0000   1.0000   1.0000   1.0000   1.0000   1.0000   1.0000   1.0000
     1.0000   1.0000   1.0000   1.0000   1.0000   1.0000   1.0000   1.0000
     1.0000   1.0000   1.0000   1.0000   1.0000   1.0000   1.0000   1.0000
     1.0000   1.0000   1.0000   1.0000   1.0000   1.0000   1.0000   1.0000
     1.0000   1.0000   1.0000   1.0000   1.0000   1.0000   1.0000   1.0000
     1.0000   1.0000   1.0000   1.0000   1.0000   1.0000   1.0000   1.0000
     1.0000   1.0000   1.0000   1.0000   1.0000   1.0000   1.0000   1.0000
     1.0000   1.0000   1.0000   1.0000   1.0000   1.0000   1.0000   1.0000
     1.0000   1.0000   1.0000   1.0000   1.0000   1.0000   1.0000   1.0000
     1.0000   1.0000   1.0000   1.0000   1.0000   1.0000   1.0000   1.0000
     1.0000   1.0000   1.0000   1.0000   1.0000   1.0000   1.0000   1.0000
     1.0000   1.0000   1.0000   1.0000   1.0000   1.0000   1.0000   1.0000
     1.0000   1.0000   1.0000   1.0000   1.0000   1.0000   1.0000   1.0000
     1.0000   1.0000   1.0000   1.0000   1.0000   1.0000   1.0000   1.0000
     1.0000   1.0000   1.0000   1.0000   1.0000   1.0000   1.0000   1.0000
     1.0000   1.0000   1.0000   1.0000   1.0000   1.0000   1.0000   1.0000
     1.0000   1.0000   1.0000   1.0000   1.0000   1.0000   1.0000   1.0000
     1.0000   1.0000   1.0000   1.0000   1.0000   1.0000   1.0000   1.0000
     1.0000   1.0000   1.0000   1.0000   1.0000   1.0000   1.0000   1.0000
     1.0000   1.0000   1.0000   1.0000   1.0000   1.0000   1.0000   1.0000
     1.0000   1.0000   1.0833   1.0815   0.0000   0.0000   0.0000   0.0000
     0.0000   0.0000   0.0000   0.0000   0.0000   0.0000   0.0000   0.0000
     0.0000   0.0000   0.0000   0.0000   0.0000   0.0000   0.0000   0.0000
     0.0000   0.0000   0.0000   0.0000   0.0000   0.0000   0.0000   0.0000
     0.0000   0.0000   0.0000   0.0000   0.0000   0.0000   0.0000   0.0000
     0.0000   0.0000   0.0000

          k = 0.3333 0.5774 0.0000 (218247 PWs)   bands (ev):

   -24.3805 -22.3528 -22.3518 -21.8554 -21.7389 -21.7025 -21.5303 -21.4248
   -21.3342 -21.1995 -21.0901 -21.0820 -20.9512 -20.9198 -20.8388 -20.6054
   -20.4263 -20.4222 -20.3481 -20.3430 -20.3140 -20.1096 -19.9822 -19.9386
   -19.8602 -19.8276 -19.8211 -19.7648 -19.5592 -19.5073 -19.4619 -19.2896
   -19.2468 -19.2210 -19.1064 -19.0723 -19.0434 -18.9971 -18.9963 -18.8740
   -18.8591 -18.8437 -18.7505 -18.7458 -18.7277 -18.7129 -18.4182 -18.4134
   -18.3352 -15.8769 -14.1752 -14.1685 -13.3232 -13.2059 -13.1875 -12.9349
   -12.9321 -12.9048 -12.8745 -12.7203 -12.6752 -12.6335 -12.6007 -12.5478
   -12.4862 -12.4360 -12.4247 -12.2508 -12.0607 -12.0152 -11.9893 -11.8954
   -11.8381 -11.8152 -11.7764 -11.7697 -11.7510 -11.7058 -11.3261 -11.3108
   -11.1144 -10.9132 -10.8361 -10.8182 -10.7566 -10.7310 -10.5805 -10.5704
   -10.5461 -10.4484 -10.4226 -10.3437 -10.3309 -10.2323 -10.1167 -10.0897
   -10.0748 -10.0676  -9.9327  -9.9177  -9.5958  -9.5923  -9.5081  -9.5034
    -9.4243  -9.1926  -9.1920  -9.1755  -9.1067  -9.0671  -9.0428  -9.0340
    -9.0209  -8.9857  -8.8830  -8.8818  -8.8731  -8.7229  -8.7122  -8.7063
    -8.7002  -8.6801  -8.6747  -8.6724  -8.6406  -8.6326  -8.4441  -8.4265
    -8.4048  -8.3536  -8.3455  -8.3346  -8.3344  -8.3226  -8.3140  -8.1477
    -8.1460  -8.1380  -8.0448  -8.0347  -8.0254  -7.8784  -7.8766  -7.8211
    -7.7595  -7.7464  -7.6494  -7.5017  -7.3799  -7.3787  -7.3581  -7.3431
    -7.3221  -7.2641  -7.2332  -7.2003  -7.1745  -7.1473  -7.1062  -6.8813
    -6.8377  -6.8097  -6.7460  -6.7118  -6.6862  -6.6161  -6.6044  -6.5733
    -6.4205  -6.4078  -6.3265  -6.2167  -6.0795  -6.0474  -6.0288  -6.0168
    -5.9111  -5.8655  -5.7268  -5.6983  -5.6479  -5.5019  -5.4865  -5.4456
    -5.4425  -5.4185  -5.2025  -5.1881  -5.1651  -5.0657  -5.0621  -5.0348
    -4.8977  -4.5398  -4.5244  -4.3792  -2.3918  -0.1027   0.0606   0.0630
     0.3163   0.4015   0.4298   0.4382   0.7180   0.7350   0.7554   0.8128
     0.8324   0.8348   0.8864   0.9042   0.9460   0.9474   1.0119   1.0202
     1.0270   1.0855   1.3772   1.3917   1.3976   1.5272   1.6003   1.6162
     1.6327   1.8699   1.8735   1.9004   1.9228   1.9240   1.9324   2.0484
     2.0704   2.1676   2.1735

     occupation numbers 
     1.0000   1.0000   1.0000   1.0000   1.0000   1.0000   1.0000   1.0000
     1.0000   1.0000   1.0000   1.0000   1.0000   1.0000   1.0000   1.0000
     1.0000   1.0000   1.0000   1.0000   1.0000   1.0000   1.0000   1.0000
     1.0000   1.0000   1.0000   1.0000   1.0000   1.0000   1.0000   1.0000
     1.0000   1.0000   1.0000   1.0000   1.0000   1.0000   1.0000   1.0000
     1.0000   1.0000   1.0000   1.0000   1.0000   1.0000   1.0000   1.0000
     1.0000   1.0000   1.0000   1.0000   1.0000   1.0000   1.0000   1.0000
     1.0000   1.0000   1.0000   1.0000   1.0000   1.0000   1.0000   1.0000
     1.0000   1.0000   1.0000   1.0000   1.0000   1.0000   1.0000   1.0000
     1.0000   1.0000   1.0000   1.0000   1.0000   1.0000   1.0000   1.0000
     1.0000   1.0000   1.0000   1.0000   1.0000   1.0000   1.0000   1.0000
     1.0000   1.0000   1.0000   1.0000   1.0000   1.0000   1.0000   1.0000
     1.0000   1.0000   1.0000   1.0000   1.0000   1.0000   1.0000   1.0000
     1.0000   1.0000   1.0000   1.0000   1.0000   1.0000   1.0000   1.0000
     1.0000   1.0000   1.0000   1.0000   1.0000   1.0000   1.0000   1.0000
     1.0000   1.0000   1.0000   1.0000   1.0000   1.0000   1.0000   1.0000
     1.0000   1.0000   1.0000   1.0000   1.0000   1.0000   1.0000   1.0000
     1.0000   1.0000   1.0000   1.0000   1.0000   1.0000   1.0000   1.0000
     1.0000   1.0000   1.0000   1.0000   1.0000   1.0000   1.0000   1.0000
     1.0000   1.0000   1.0000   1.0000   1.0000   1.0000   1.0000   1.0000
     1.0000   1.0000   1.0000   1.0000   1.0000   1.0000   1.0000   1.0000
     1.0000   1.0000   1.0000   1.0000   1.0000   1.0000   1.0000   1.0000
     1.0000   1.0000   1.0000   1.0000   1.0000   1.0000   1.0000   1.0000
     1.0000   1.0000   1.0000   1.0000   1.0000   1.0000   1.0000   1.0000
     1.0000   1.0119   1.0234   0.4700   0.0000   0.0000   0.0000   0.0000
     0.0000   0.0000   0.0000   0.0000   0.0000   0.0000   0.0000   0.0000
     0.0000   0.0000   0.0000   0.0000   0.0000   0.0000   0.0000   0.0000
     0.0000   0.0000   0.0000   0.0000   0.0000   0.0000   0.0000   0.0000
     0.0000   0.0000   0.0000   0.0000   0.0000   0.0000   0.0000   0.0000
     0.0000   0.0000   0.0000

          k = 0.3333-0.1925 0.0000 (218166 PWs)   bands (ev):

   -24.3805 -22.3526 -22.3496 -21.9025 -21.7020 -21.6105 -21.5919 -21.4576
   -21.3091 -21.2186 -21.1882 -21.0238 -20.9629 -20.7942 -20.7476 -20.7033
   -20.5728 -20.4862 -20.3548 -20.2894 -20.1879 -20.1106 -20.0617 -19.9657
   -19.9270 -19.7914 -19.6792 -19.6329 -19.5642 -19.5449 -19.4147 -19.4027
   -19.2762 -19.2283 -19.1873 -19.1585 -19.0285 -19.0099 -18.9530 -18.8836
   -18.8492 -18.7913 -18.7690 -18.7398 -18.7302 -18.5271 -18.5246 -18.3809
   -18.3787 -15.8771 -14.1717 -14.1703 -13.2775 -13.2633 -13.1776 -13.0379
   -12.9689 -12.9329 -12.8035 -12.7644 -12.6124 -12.6115 -12.5486 -12.5121
   -12.3778 -12.3769 -12.3068 -12.2651 -12.2070 -12.1868 -12.1730 -12.0346
   -12.0190 -11.6949 -11.5786 -11.5512 -11.5357 -11.3688 -11.3600 -11.3382
   -11.1829 -11.1641 -10.9529 -10.9284 -10.9133 -10.8648 -10.8443 -10.6412
   -10.6182 -10.4641 -10.4630 -10.2607 -10.1615 -10.0369 -10.0071  -9.9766
    -9.8673  -9.8025  -9.7515  -9.6935  -9.6451  -9.5179  -9.4831  -9.4557
    -9.4450  -9.3980  -9.3815  -9.3273  -9.3078  -9.3043  -9.2918  -9.0689
    -9.0645  -8.8960  -8.8913  -8.8568  -8.8349  -8.8298  -8.7195  -8.7192
    -8.6593  -8.6280  -8.6232  -8.6058  -8.5789  -8.5411  -8.5353  -8.4636
    -8.4532  -8.3592  -8.3551  -8.3146  -8.2907  -8.2764  -8.2188  -8.1901
    -8.0908  -8.0647  -7.9526  -7.9421  -7.9250  -7.8682  -7.8627  -7.8439
    -7.7505  -7.7369  -7.6899  -7.6637  -7.6096  -7.4530  -7.4102  -7.3194
    -7.2970  -7.2802  -7.1841  -7.1640  -7.0980  -7.0757  -7.0325  -6.8976
    -6.8545  -6.8450  -6.7995  -6.6870  -6.6774  -6.6644  -6.6498  -6.4334
    -6.3582  -6.2770  -6.2664  -6.2496  -6.1415  -6.1287  -6.0765  -6.0030
    -5.9498  -5.9180  -5.8181  -5.7526  -5.6657  -5.5639  -5.5601  -5.4476
    -5.4165  -5.3371  -5.2052  -5.1661  -5.0657  -5.0504  -5.0077  -5.0073
    -4.7150  -4.7138  -4.4692  -4.4631  -2.3909  -0.0903   0.0676   0.0776
     0.3626   0.3840   0.4270   0.4721   0.6100   0.6540   0.6891   0.6922
     0.7315   0.7462   0.8183   1.0185   1.0419   1.0554   1.0928   1.0977
     1.2279   1.2572   1.2806   1.3982   1.5011   1.5128   1.5558   1.5594
     1.6420   1.6629   1.6833   1.7505   1.8137   1.8686   1.9108   2.0580
     2.0979   2.2110   2.2547

     occupation numbers 
     1.0000   1.0000   1.0000   1.0000   1.0000   1.0000   1.0000   1.0000
     1.0000   1.0000   1.0000   1.0000   1.0000   1.0000   1.0000   1.0000
     1.0000   1.0000   1.0000   1.0000   1.0000   1.0000   1.0000   1.0000
     1.0000   1.0000   1.0000   1.0000   1.0000   1.0000   1.0000   1.0000
     1.0000   1.0000   1.0000   1.0000   1.0000   1.0000   1.0000   1.0000
     1.0000   1.0000   1.0000   1.0000   1.0000   1.0000   1.0000   1.0000
     1.0000   1.0000   1.0000   1.0000   1.0000   1.0000   1.0000   1.0000
     1.0000   1.0000   1.0000   1.0000   1.0000   1.0000   1.0000   1.0000
     1.0000   1.0000   1.0000   1.0000   1.0000   1.0000   1.0000   1.0000
     1.0000   1.0000   1.0000   1.0000   1.0000   1.0000   1.0000   1.0000
     1.0000   1.0000   1.0000   1.0000   1.0000   1.0000   1.0000   1.0000
     1.0000   1.0000   1.0000   1.0000   1.0000   1.0000   1.0000   1.0000
     1.0000   1.0000   1.0000   1.0000   1.0000   1.0000   1.0000   1.0000
     1.0000   1.0000   1.0000   1.0000   1.0000   1.0000   1.0000   1.0000
     1.0000   1.0000   1.0000   1.0000   1.0000   1.0000   1.0000   1.0000
     1.0000   1.0000   1.0000   1.0000   1.0000   1.0000   1.0000   1.0000
     1.0000   1.0000   1.0000   1.0000   1.0000   1.0000   1.0000   1.0000
     1.0000   1.0000   1.0000   1.0000   1.0000   1.0000   1.0000   1.0000
     1.0000   1.0000   1.0000   1.0000   1.0000   1.0000   1.0000   1.0000
     1.0000   1.0000   1.0000   1.0000   1.0000   1.0000   1.0000   1.0000
     1.0000   1.0000   1.0000   1.0000   1.0000   1.0000   1.0000   1.0000
     1.0000   1.0000   1.0000   1.0000   1.0000   1.0000   1.0000   1.0000
     1.0000   1.0000   1.0000   1.0000   1.0000   1.0000   1.0000   1.0000
     1.0000   1.0000   1.0000   1.0000   1.0000   1.0000   1.0000   1.0000
     1.0000   1.0000   1.0833   1.0815   0.0000   0.0000   0.0000   0.0000
     0.0000   0.0000   0.0000   0.0000   0.0000   0.0000   0.0000   0.0000
     0.0000   0.0000   0.0000   0.0000   0.0000   0.0000   0.0000   0.0000
     0.0000   0.0000   0.0000   0.0000   0.0000   0.0000   0.0000   0.0000
     0.0000   0.0000   0.0000   0.0000   0.0000   0.0000   0.0000   0.0000
     0.0000   0.0000   0.0000

 ------ SPIN DOWN ----------


          k = 0.0000 0.0000 0.0000 (218275 PWs)   bands (ev):

   -24.3805 -22.3487 -22.3487 -21.9525 -21.6163 -21.6163 -21.4625 -21.4575
   -21.4575 -21.3907 -21.0316 -21.0316 -20.9504 -20.6832 -20.6832 -20.6678
   -20.5784 -20.5784 -20.5569 -20.3324 -20.3324 -20.0644 -19.8814 -19.8814
   -19.8407 -19.7405 -19.6334 -19.6334 -19.5477 -19.5465 -19.5465 -19.3560
   -19.3560 -19.3221 -19.1252 -19.1252 -19.1222 -19.1111 -19.1111 -18.8055
   -18.7985 -18.7985 -18.7710 -18.5834 -18.5834 -18.4921 -18.4892 -18.4857
   -18.4857 -15.8777 -14.1707 -14.1707 -13.2664 -13.2489 -13.2489 -12.9670
   -12.9670 -12.8163 -12.8066 -12.8066 -12.8060 -12.6606 -12.6606 -12.5470
   -12.4445 -12.4273 -12.4273 -11.9937 -11.9937 -11.9903 -11.8581 -11.8581
   -11.7774 -11.7089 -11.6561 -11.6528 -11.6528 -11.6090 -11.6090 -11.4063
   -11.3360 -11.2242 -11.2242 -10.9135 -10.9038 -10.9038 -10.6691 -10.6691
   -10.5093 -10.4140 -10.4140 -10.3368 -10.1838 -10.1838 -10.1509  -9.7597
    -9.6777  -9.6777  -9.5089  -9.5089  -9.4411  -9.4411  -9.4122  -9.3699
    -9.3699  -9.3454  -9.3063  -9.2888  -9.2456  -9.2456  -9.2129  -9.2129
    -9.2095  -9.0479  -9.0376  -9.0376  -9.0106  -9.0106  -9.0080  -9.0072
    -9.0072  -8.8860  -8.5911  -8.5911  -8.5874  -8.5726  -8.4181  -8.4181
    -8.3558  -8.3558  -8.3399  -8.2367  -8.2367  -8.1674  -8.1674  -8.0976
    -8.0646  -7.9573  -7.9573  -7.8377  -7.6800  -7.6762  -7.6762  -7.6711
    -7.6315  -7.6176  -7.6176  -7.6146  -7.6146  -7.5648  -7.5648  -7.5351
    -7.5225  -7.5225  -7.4413  -7.2561  -7.2561  -7.1496  -6.9540  -6.9540
    -6.8503  -6.5936  -6.5936  -6.5522  -6.5127  -6.5127  -6.5084  -6.4003
    -6.4003  -6.3533  -6.3216  -6.2852  -6.2852  -6.2086  -6.2086  -6.2010
    -5.8848  -5.8848  -5.8677  -5.7539  -5.7539  -5.6130  -5.6055  -5.6055
    -5.3828  -5.3828  -5.0657  -5.0611  -5.0393  -5.0393  -4.7885  -4.7885
    -4.6768  -4.6668  -4.6561  -4.6561  -2.3899  -0.0739   0.0630   0.0630
     0.3547   0.3695   0.3695   0.5618   0.6544   0.6935   0.6935   0.7172
     0.7172   0.8361   0.9116   0.9116   0.9769   0.9769   0.9942   1.0196
     1.0808   1.0808   1.2994   1.2994   1.3769   1.4890   1.6079   1.8061
     1.8061   1.9108   1.9108   1.9379   2.0523   2.1371   2.1373   2.1398
     2.1602   2.1684   2.1685

     occupation numbers 
     1.0000   1.0000   1.0000   1.0000   1.0000   1.0000   1.0000   1.0000
     1.0000   1.0000   1.0000   1.0000   1.0000   1.0000   1.0000   1.0000
     1.0000   1.0000   1.0000   1.0000   1.0000   1.0000   1.0000   1.0000
     1.0000   1.0000   1.0000   1.0000   1.0000   1.0000   1.0000   1.0000
     1.0000   1.0000   1.0000   1.0000   1.0000   1.0000   1.0000   1.0000
     1.0000   1.0000   1.0000   1.0000   1.0000   1.0000   1.0000   1.0000
     1.0000   1.0000   1.0000   1.0000   1.0000   1.0000   1.0000   1.0000
     1.0000   1.0000   1.0000   1.0000   1.0000   1.0000   1.0000   1.0000
     1.0000   1.0000   1.0000   1.0000   1.0000   1.0000   1.0000   1.0000
     1.0000   1.0000   1.0000   1.0000   1.0000   1.0000   1.0000   1.0000
     1.0000   1.0000   1.0000   1.0000   1.0000   1.0000   1.0000   1.0000
     1.0000   1.0000   1.0000   1.0000   1.0000   1.0000   1.0000   1.0000
     1.0000   1.0000   1.0000   1.0000   1.0000   1.0000   1.0000   1.0000
     1.0000   1.0000   1.0000   1.0000   1.0000   1.0000   1.0000   1.0000
     1.0000   1.0000   1.0000   1.0000   1.0000   1.0000   1.0000   1.0000
     1.0000   1.0000   1.0000   1.0000   1.0000   1.0000   1.0000   1.0000
     1.0000   1.0000   1.0000   1.0000   1.0000   1.0000   1.0000   1.0000
     1.0000   1.0000   1.0000   1.0000   1.0000   1.0000   1.0000   1.0000
     1.0000   1.0000   1.0000   1.0000   1.0000   1.0000   1.0000   1.0000
     1.0000   1.0000   1.0000   1.0000   1.0000   1.0000   1.0000   1.0000
     1.0000   1.0000   1.0000   1.0000   1.0000   1.0000   1.0000   1.0000
     1.0000   1.0000   1.0000   1.0000   1.0000   1.0000   1.0000   1.0000
     1.0000   1.0000   1.0000   1.0000   1.0000   1.0000   1.0000   1.0000
     1.0000   1.0000   1.0000   1.0000   1.0000   1.0000   1.0000   1.0000
     1.0000   1.0000   1.0000   1.0000   0.0000   0.0000   0.0000   0.0000
     0.0000   0.0000   0.0000   0.0000   0.0000   0.0000   0.0000   0.0000
     0.0000   0.0000   0.0000   0.0000   0.0000   0.0000   0.0000   0.0000
     0.0000   0.0000   0.0000   0.0000   0.0000   0.0000   0.0000   0.0000
     0.0000   0.0000   0.0000   0.0000   0.0000   0.0000   0.0000   0.0000
     0.0000   0.0000   0.0000

          k = 0.0000 0.3849 0.0000 (218166 PWs)   bands (ev):

   -24.3805 -22.3526 -22.3496 -21.9025 -21.7020 -21.6105 -21.5918 -21.4576
   -21.3091 -21.2186 -21.1882 -21.0238 -20.9629 -20.7942 -20.7476 -20.7033
   -20.5728 -20.4862 -20.3548 -20.2894 -20.1879 -20.1106 -20.0617 -19.9657
   -19.9270 -19.7914 -19.6792 -19.6329 -19.5642 -19.5449 -19.4147 -19.4027
   -19.2762 -19.2283 -19.1873 -19.1585 -19.0285 -19.0099 -18.9530 -18.8836
   -18.8492 -18.7913 -18.7690 -18.7398 -18.7302 -18.5271 -18.5246 -18.3809
   -18.3787 -15.8771 -14.1717 -14.1703 -13.2775 -13.2633 -13.1776 -13.0379
   -12.9689 -12.9329 -12.8035 -12.7643 -12.6124 -12.6115 -12.5485 -12.5121
   -12.3778 -12.3769 -12.3068 -12.2651 -12.2070 -12.1868 -12.1730 -12.0346
   -12.0190 -11.6949 -11.5786 -11.5512 -11.5357 -11.3687 -11.3600 -11.3382
   -11.1829 -11.1641 -10.9529 -10.9284 -10.9133 -10.8648 -10.8443 -10.6412
   -10.6182 -10.4641 -10.4630 -10.2607 -10.1615 -10.0369 -10.0070  -9.9766
    -9.8673  -9.8025  -9.7515  -9.6934  -9.6451  -9.5179  -9.4831  -9.4557
    -9.4450  -9.3979  -9.3815  -9.3273  -9.3077  -9.3043  -9.2918  -9.0689
    -9.0645  -8.8960  -8.8913  -8.8568  -8.8349  -8.8298  -8.7194  -8.7192
    -8.6593  -8.6280  -8.6232  -8.6058  -8.5789  -8.5411  -8.5353  -8.4636
    -8.4532  -8.3592  -8.3551  -8.3146  -8.2907  -8.2764  -8.2188  -8.1901
    -8.0908  -8.0647  -7.9526  -7.9421  -7.9250  -7.8682  -7.8627  -7.8439
    -7.7505  -7.7368  -7.6899  -7.6637  -7.6096  -7.4530  -7.4102  -7.3194
    -7.2970  -7.2802  -7.1841  -7.1640  -7.0980  -7.0757  -7.0325  -6.8976
    -6.8545  -6.8450  -6.7995  -6.6869  -6.6774  -6.6644  -6.6498  -6.4334
    -6.3582  -6.2770  -6.2664  -6.2496  -6.1415  -6.1287  -6.0766  -6.0030
    -5.9498  -5.9180  -5.8181  -5.7526  -5.6657  -5.5639  -5.5601  -5.4476
    -5.4165  -5.3371  -5.2052  -5.1661  -5.0658  -5.0504  -5.0077  -5.0073
    -4.7151  -4.7138  -4.4692  -4.4631  -2.3908  -0.0904   0.0676   0.0776
     0.3625   0.3840   0.4270   0.4721   0.6100   0.6540   0.6891   0.6922
     0.7315   0.7462   0.8183   1.0185   1.0419   1.0554   1.0928   1.0977
     1.2279   1.2572   1.2806   1.3982   1.5011   1.5128   1.5558   1.5594
     1.6420   1.6629   1.6833   1.7505   1.8137   1.8686   1.9108   2.0580
     2.0979   2.2107   2.2546

     occupation numbers 
     1.0000   1.0000   1.0000   1.0000   1.0000   1.0000   1.0000   1.0000
     1.0000   1.0000   1.0000   1.0000   1.0000   1.0000   1.0000   1.0000
     1.0000   1.0000   1.0000   1.0000   1.0000   1.0000   1.0000   1.0000
     1.0000   1.0000   1.0000   1.0000   1.0000   1.0000   1.0000   1.0000
     1.0000   1.0000   1.0000   1.0000   1.0000   1.0000   1.0000   1.0000
     1.0000   1.0000   1.0000   1.0000   1.0000   1.0000   1.0000   1.0000
     1.0000   1.0000   1.0000   1.0000   1.0000   1.0000   1.0000   1.0000
     1.0000   1.0000   1.0000   1.0000   1.0000   1.0000   1.0000   1.0000
     1.0000   1.0000   1.0000   1.0000   1.0000   1.0000   1.0000   1.0000
     1.0000   1.0000   1.0000   1.0000   1.0000   1.0000   1.0000   1.0000
     1.0000   1.0000   1.0000   1.0000   1.0000   1.0000   1.0000   1.0000
     1.0000   1.0000   1.0000   1.0000   1.0000   1.0000   1.0000   1.0000
     1.0000   1.0000   1.0000   1.0000   1.0000   1.0000   1.0000   1.0000
     1.0000   1.0000   1.0000   1.0000   1.0000   1.0000   1.0000   1.0000
     1.0000   1.0000   1.0000   1.0000   1.0000   1.0000   1.0000   1.0000
     1.0000   1.0000   1.0000   1.0000   1.0000   1.0000   1.0000   1.0000
     1.0000   1.0000   1.0000   1.0000   1.0000   1.0000   1.0000   1.0000
     1.0000   1.0000   1.0000   1.0000   1.0000   1.0000   1.0000   1.0000
     1.0000   1.0000   1.0000   1.0000   1.0000   1.0000   1.0000   1.0000
     1.0000   1.0000   1.0000   1.0000   1.0000   1.0000   1.0000   1.0000
     1.0000   1.0000   1.0000   1.0000   1.0000   1.0000   1.0000   1.0000
     1.0000   1.0000   1.0000   1.0000   1.0000   1.0000   1.0000   1.0000
     1.0000   1.0000   1.0000   1.0000   1.0000   1.0000   1.0000   1.0000
     1.0000   1.0000   1.0000   1.0000   1.0000   1.0000   1.0000   1.0000
     1.0000   1.0000   1.0833   1.0816   0.0000   0.0000   0.0000   0.0000
     0.0000   0.0000   0.0000   0.0000   0.0000   0.0000   0.0000   0.0000
     0.0000   0.0000   0.0000   0.0000   0.0000   0.0000   0.0000   0.0000
     0.0000   0.0000   0.0000   0.0000   0.0000   0.0000   0.0000   0.0000
     0.0000   0.0000   0.0000   0.0000   0.0000   0.0000   0.0000   0.0000
     0.0000   0.0000   0.0000

          k = 0.3333 0.5774 0.0000 (218247 PWs)   bands (ev):

   -24.3805 -22.3528 -22.3518 -21.8554 -21.7389 -21.7025 -21.5303 -21.4248
   -21.3342 -21.1995 -21.0901 -21.0820 -20.9512 -20.9198 -20.8388 -20.6054
   -20.4263 -20.4222 -20.3481 -20.3430 -20.3140 -20.1096 -19.9822 -19.9386
   -19.8602 -19.8276 -19.8211 -19.7648 -19.5591 -19.5073 -19.4619 -19.2896
   -19.2468 -19.2210 -19.1064 -19.0723 -19.0434 -18.9971 -18.9963 -18.8740
   -18.8591 -18.8437 -18.7505 -18.7458 -18.7277 -18.7129 -18.4182 -18.4135
   -18.3352 -15.8768 -14.1752 -14.1685 -13.3232 -13.2059 -13.1875 -12.9349
   -12.9321 -12.9048 -12.8745 -12.7203 -12.6752 -12.6335 -12.6007 -12.5478
   -12.4862 -12.4360 -12.4247 -12.2508 -12.0607 -12.0152 -11.9893 -11.8954
   -11.8381 -11.8152 -11.7764 -11.7697 -11.7509 -11.7058 -11.3261 -11.3108
   -11.1144 -10.9132 -10.8361 -10.8182 -10.7565 -10.7310 -10.5805 -10.5704
   -10.5461 -10.4484 -10.4226 -10.3437 -10.3309 -10.2323 -10.1167 -10.0897
   -10.0748 -10.0676  -9.9327  -9.9177  -9.5958  -9.5923  -9.5081  -9.5034
    -9.4243  -9.1926  -9.1920  -9.1755  -9.1067  -9.0671  -9.0428  -9.0340
    -9.0209  -8.9857  -8.8830  -8.8818  -8.8731  -8.7229  -8.7122  -8.7063
    -8.7001  -8.6801  -8.6747  -8.6724  -8.6406  -8.6326  -8.4441  -8.4265
    -8.4048  -8.3536  -8.3455  -8.3346  -8.3344  -8.3227  -8.3140  -8.1476
    -8.1460  -8.1380  -8.0448  -8.0347  -8.0254  -7.8784  -7.8766  -7.8211
    -7.7595  -7.7464  -7.6494  -7.5017  -7.3799  -7.3787  -7.3581  -7.3430
    -7.3221  -7.2641  -7.2332  -7.2003  -7.1745  -7.1473  -7.1062  -6.8813
    -6.8377  -6.8097  -6.7460  -6.7118  -6.6862  -6.6161  -6.6044  -6.5733
    -6.4205  -6.4078  -6.3265  -6.2167  -6.0795  -6.0474  -6.0288  -6.0168
    -5.9111  -5.8655  -5.7268  -5.6983  -5.6479  -5.5019  -5.4865  -5.4456
    -5.4425  -5.4185  -5.2025  -5.1881  -5.1651  -5.0657  -5.0621  -5.0349
    -4.8977  -4.5398  -4.5244  -4.3792  -2.3917  -0.1028   0.0605   0.0630
     0.3162   0.4015   0.4298   0.4382   0.7180   0.7350   0.7554   0.8128
     0.8324   0.8348   0.8864   0.9043   0.9460   0.9474   1.0119   1.0202
     1.0270   1.0856   1.3772   1.3917   1.3976   1.5272   1.6004   1.6162
     1.6327   1.8699   1.8736   1.9004   1.9227   1.9238   1.9324   2.0484
     2.0704   2.1354   2.1394

     occupation numbers 
     1.0000   1.0000   1.0000   1.0000   1.0000   1.0000   1.0000   1.0000
     1.0000   1.0000   1.0000   1.0000   1.0000   1.0000   1.0000   1.0000
     1.0000   1.0000   1.0000   1.0000   1.0000   1.0000   1.0000   1.0000
     1.0000   1.0000   1.0000   1.0000   1.0000   1.0000   1.0000   1.0000
     1.0000   1.0000   1.0000   1.0000   1.0000   1.0000   1.0000   1.0000
     1.0000   1.0000   1.0000   1.0000   1.0000   1.0000   1.0000   1.0000
     1.0000   1.0000   1.0000   1.0000   1.0000   1.0000   1.0000   1.0000
     1.0000   1.0000   1.0000   1.0000   1.0000   1.0000   1.0000   1.0000
     1.0000   1.0000   1.0000   1.0000   1.0000   1.0000   1.0000   1.0000
     1.0000   1.0000   1.0000   1.0000   1.0000   1.0000   1.0000   1.0000
     1.0000   1.0000   1.0000   1.0000   1.0000   1.0000   1.0000   1.0000
     1.0000   1.0000   1.0000   1.0000   1.0000   1.0000   1.0000   1.0000
     1.0000   1.0000   1.0000   1.0000   1.0000   1.0000   1.0000   1.0000
     1.0000   1.0000   1.0000   1.0000   1.0000   1.0000   1.0000   1.0000
     1.0000   1.0000   1.0000   1.0000   1.0000   1.0000   1.0000   1.0000
     1.0000   1.0000   1.0000   1.0000   1.0000   1.0000   1.0000   1.0000
     1.0000   1.0000   1.0000   1.0000   1.0000   1.0000   1.0000   1.0000
     1.0000   1.0000   1.0000   1.0000   1.0000   1.0000   1.0000   1.0000
     1.0000   1.0000   1.0000   1.0000   1.0000   1.0000   1.0000   1.0000
     1.0000   1.0000   1.0000   1.0000   1.0000   1.0000   1.0000   1.0000
     1.0000   1.0000   1.0000   1.0000   1.0000   1.0000   1.0000   1.0000
     1.0000   1.0000   1.0000   1.0000   1.0000   1.0000   1.0000   1.0000
     1.0000   1.0000   1.0000   1.0000   1.0000   1.0000   1.0000   1.0000
     1.0000   1.0000   1.0000   1.0000   1.0000   1.0000   1.0000   1.0000
     1.0000   1.0119   1.0234   0.4703   0.0000   0.0000   0.0000   0.0000
     0.0000   0.0000   0.0000   0.0000   0.0000   0.0000   0.0000   0.0000
     0.0000   0.0000   0.0000   0.0000   0.0000   0.0000   0.0000   0.0000
     0.0000   0.0000   0.0000   0.0000   0.0000   0.0000   0.0000   0.0000
     0.0000   0.0000   0.0000   0.0000   0.0000   0.0000   0.0000   0.0000
     0.0000   0.0000   0.0000

          k = 0.3333-0.1925 0.0000 (218166 PWs)   bands (ev):

   -24.3805 -22.3526 -22.3496 -21.9025 -21.7020 -21.6105 -21.5919 -21.4576
   -21.3091 -21.2186 -21.1882 -21.0238 -20.9629 -20.7942 -20.7476 -20.7033
   -20.5728 -20.4862 -20.3548 -20.2894 -20.1879 -20.1106 -20.0617 -19.9657
   -19.9270 -19.7914 -19.6791 -19.6329 -19.5642 -19.5449 -19.4147 -19.4027
   -19.2762 -19.2283 -19.1873 -19.1585 -19.0285 -19.0099 -18.9530 -18.8836
   -18.8492 -18.7913 -18.7690 -18.7398 -18.7302 -18.5271 -18.5246 -18.3809
   -18.3787 -15.8771 -14.1717 -14.1703 -13.2775 -13.2633 -13.1776 -13.0379
   -12.9689 -12.9329 -12.8035 -12.7644 -12.6124 -12.6115 -12.5485 -12.5121
   -12.3778 -12.3769 -12.3068 -12.2651 -12.2070 -12.1868 -12.1730 -12.0346
   -12.0190 -11.6949 -11.5786 -11.5512 -11.5357 -11.3688 -11.3600 -11.3382
   -11.1829 -11.1641 -10.9529 -10.9284 -10.9133 -10.8648 -10.8443 -10.6412
   -10.6182 -10.4641 -10.4630 -10.2607 -10.1615 -10.0369 -10.0070  -9.9766
    -9.8673  -9.8025  -9.7515  -9.6934  -9.6451  -9.5179  -9.4831  -9.4557
    -9.4450  -9.3979  -9.3815  -9.3273  -9.3077  -9.3043  -9.2918  -9.0689
    -9.0645  -8.8960  -8.8913  -8.8568  -8.8349  -8.8298  -8.7194  -8.7192
    -8.6593  -8.6280  -8.6232  -8.6058  -8.5789  -8.5411  -8.5353  -8.4636
    -8.4532  -8.3592  -8.3551  -8.3146  -8.2907  -8.2764  -8.2188  -8.1901
    -8.0908  -8.0647  -7.9526  -7.9421  -7.9250  -7.8682  -7.8627  -7.8439
    -7.7505  -7.7368  -7.6899  -7.6637  -7.6096  -7.4530  -7.4102  -7.3194
    -7.2970  -7.2802  -7.1841  -7.1640  -7.0980  -7.0757  -7.0325  -6.8976
    -6.8545  -6.8450  -6.7995  -6.6869  -6.6774  -6.6644  -6.6497  -6.4334
    -6.3582  -6.2770  -6.2664  -6.2496  -6.1415  -6.1287  -6.0766  -6.0030
    -5.9498  -5.9180  -5.8181  -5.7526  -5.6657  -5.5639  -5.5601  -5.4476
    -5.4165  -5.3371  -5.2052  -5.1661  -5.0658  -5.0504  -5.0077  -5.0073
    -4.7151  -4.7138  -4.4692  -4.4631  -2.3908  -0.0904   0.0676   0.0776
     0.3625   0.3840   0.4270   0.4721   0.6100   0.6540   0.6891   0.6922
     0.7315   0.7462   0.8183   1.0185   1.0419   1.0554   1.0928   1.0977
     1.2279   1.2572   1.2806   1.3982   1.5011   1.5128   1.5558   1.5594
     1.6420   1.6629   1.6833   1.7505   1.8137   1.8686   1.9108   2.0581
     2.0979   2.2107   2.2546

     occupation numbers 
     1.0000   1.0000   1.0000   1.0000   1.0000   1.0000   1.0000   1.0000
     1.0000   1.0000   1.0000   1.0000   1.0000   1.0000   1.0000   1.0000
     1.0000   1.0000   1.0000   1.0000   1.0000   1.0000   1.0000   1.0000
[...]
     atom   79 type  3   force =     0.00000000    0.00000000    0.00000000
     atom   80 type  1   force =     0.00000000    0.00000000    0.00000000
     atom   81 type  3   force =     0.00000000    0.00000000    0.00000000
     atom   82 type  1   force =     0.00000000    0.00000000    0.00000000
     atom   83 type  3   force =     0.00000000    0.00000000    0.00000000
     atom   84 type  1   force =     0.00000000    0.00000000    0.00000000
     atom   85 type  3   force =     0.00000000    0.00000000    0.00000000
     atom   86 type  1   force =     0.00000000    0.00000000    0.00000000
     atom   87 type  3   force =     0.00000000    0.00000000    0.00000000
     atom   88 type  1   force =     0.00000000    0.00000000    0.00000000
     atom   89 type  3   force =     0.00000000    0.00000000    0.00000000
     atom   90 type  1   force =     0.00000000    0.00000000    0.00000000
     atom   91 type  3   force =     0.00000000    0.00000000    0.00000000
     atom   92 type  1   force =     0.00000000    0.00000000    0.00000000
     atom   93 type  3   force =     0.00000000    0.00000000    0.00000000
     atom   94 type  1   force =     0.00000000    0.00000000    0.00000000
     atom   95 type  3   force =     0.00000000    0.00000000    0.00000000
     atom   96 type  1   force =     0.00000000    0.00000000    0.00000000
     atom   97 type  3   force =     0.00000000    0.00000000    0.00000000
     atom   98 type  2   force =     0.00000000    0.00000000    0.00000000
     The SCF correction term to forces
     atom    1 type  3   force =     0.00000065   -0.00000038   -0.00000002
     atom    2 type  1   force =     0.00000005    0.00000002   -0.00000000
     atom    3 type  3   force =     0.00000000    0.00000073   -0.00000002
     atom    4 type  1   force =    -0.00000015   -0.00000021   -0.00000000
     atom    5 type  3   force =     0.00000042   -0.00000031    0.00000000
     atom    6 type  1   force =    -0.00000011   -0.00000009   -0.00000000
     atom    7 type  3   force =    -0.00000055    0.00000000   -0.00000000
     atom    8 type  1   force =    -0.00000013   -0.00000005   -0.00000000
     atom    9 type  3   force =    -0.00000104   -0.00000060   -0.00000001
     atom   10 type  1   force =    -0.00000026   -0.00000002    0.00000000
     atom   11 type  3   force =    -0.00000027   -0.00000048   -0.00000000
     atom   12 type  1   force =     0.00000004    0.00000004   -0.00000000
     atom   13 type  3   force =    -0.00000005    0.00000051    0.00000001
     atom   14 type  1   force =    -0.00000001   -0.00000006   -0.00000000
     atom   15 type  3   force =    -0.00000047   -0.00000021    0.00000001
     atom   16 type  1   force =    -0.00000005    0.00000002   -0.00000000
     atom   17 type  3   force =    -0.00000016   -0.00000010    0.00000001
     atom   18 type  1   force =    -0.00000000   -0.00000038    0.00000000
     atom   19 type  3   force =    -0.00000042   -0.00000031    0.00000000
     atom   20 type  1   force =     0.00000008   -0.00000016   -0.00000000
     atom   21 type  3   force =     0.00000000    0.00000096   -0.00000001
     atom   22 type  1   force =    -0.00000005   -0.00000003   -0.00000000
     atom   23 type  3   force =    -0.00000009   -0.00000006   -0.00000001
     atom   24 type  1   force =    -0.00000010    0.00000015   -0.00000000
     atom   25 type  3   force =    -0.00000011   -0.00000004   -0.00000001
     atom   26 type  1   force =    -0.00000033    0.00000019    0.00000000
     atom   27 type  3   force =     0.00000084   -0.00000048   -0.00000000
     atom   28 type  1   force =    -0.00000011    0.00000024    0.00000000
     atom   29 type  3   force =     0.00000027    0.00000047   -0.00000000
     atom   30 type  1   force =     0.00000006    0.00000003   -0.00000000
     atom   31 type  3   force =    -0.00000035   -0.00000018   -0.00000000
     atom   32 type  1   force =     0.00000015   -0.00000021   -0.00000000
     atom   33 type  3   force =    -0.00000033   -0.00000021   -0.00000000
     atom   34 type  1   force =    -0.00000008   -0.00000016   -0.00000000
     atom   35 type  3   force =     0.00000055    0.00000000   -0.00000000
     atom   36 type  1   force =    -0.00000000   -0.00000015   -0.00000000
     atom   37 type  3   force =     0.00000009   -0.00000006   -0.00000001
     atom   38 type  1   force =    -0.00000013    0.00000008   -0.00000000
     atom   39 type  3   force =     0.00000000   -0.00000001   -0.00000001
     atom   40 type  1   force =    -0.00000018    0.00000002   -0.00000000
     atom   41 type  3   force =    -0.00000003    0.00000011   -0.00000001
     atom   42 type  1   force =    -0.00000002    0.00000014   -0.00000000
     atom   43 type  3   force =    -0.00000000    0.00000120   -0.00000000
     atom   44 type  1   force =     0.00000009    0.00000010   -0.00000000
     atom   45 type  3   force =    -0.00000009    0.00000085   -0.00000000
     atom   46 type  1   force =     0.00000013    0.00000002   -0.00000000
     atom   47 type  3   force =     0.00000014    0.00000009   -0.00000001
     atom   48 type  1   force =     0.00000011   -0.00000009   -0.00000000
     atom   49 type  3   force =     0.00000070   -0.00000050   -0.00000001
     atom   50 type  1   force =     0.00000005   -0.00000003   -0.00000000
     atom   51 type  3   force =     0.00000104   -0.00000060   -0.00000001
     atom   52 type  1   force =     0.00000013    0.00000008   -0.00000000
     atom   53 type  3   force =     0.00000011   -0.00000004   -0.00000001
     atom   54 type  1   force =    -0.00000000    0.00000005   -0.00000000
     atom   55 type  3   force =     0.00000003    0.00000011   -0.00000001
     atom   56 type  1   force =     0.00000002    0.00000014   -0.00000000
     atom   57 type  3   force =    -0.00000027    0.00000047   -0.00000000
     atom   58 type  1   force =     0.00000000    0.00000014   -0.00000000
     atom   59 type  3   force =     0.00000009    0.00000085   -0.00000000
     atom   60 type  1   force =     0.00000019    0.00000011   -0.00000000
     atom   61 type  3   force =    -0.00000000    0.00000080   -0.00000000
     atom   62 type  1   force =     0.00000012   -0.00000007   -0.00000000
     atom   63 type  3   force =     0.00000068   -0.00000039   -0.00000000
     atom   64 type  1   force =     0.00000013   -0.00000005   -0.00000000
     atom   65 type  3   force =     0.00000079   -0.00000036   -0.00000000
     atom   66 type  1   force =     0.00000010    0.00000015   -0.00000000
     atom   67 type  3   force =     0.00000027   -0.00000048   -0.00000000
     atom   68 type  1   force =     0.00000018    0.00000002   -0.00000000
     atom   69 type  3   force =    -0.00000084   -0.00000048   -0.00000000
     atom   70 type  1   force =     0.00000011    0.00000024    0.00000000
     atom   71 type  3   force =     0.00000047   -0.00000021    0.00000001
     atom   72 type  1   force =    -0.00000009    0.00000010   -0.00000000
     atom   73 type  3   force =     0.00000035   -0.00000018   -0.00000000
     atom   74 type  1   force =    -0.00000019    0.00000011   -0.00000000
     atom   75 type  3   force =    -0.00000014    0.00000009   -0.00000001
     atom   76 type  1   force =    -0.00000000   -0.00000022   -0.00000000
     atom   77 type  3   force =    -0.00000068   -0.00000039   -0.00000000
     atom   78 type  1   force =     0.00000005   -0.00000013   -0.00000000
     atom   79 type  3   force =    -0.00000000   -0.00000017   -0.00000000
     atom   80 type  1   force =     0.00000026   -0.00000002    0.00000000
     atom   81 type  3   force =     0.00000002    0.00000041    0.00000000
     atom   82 type  1   force =     0.00000033    0.00000019    0.00000000
     atom   83 type  3   force =     0.00000005    0.00000051    0.00000001
     atom   84 type  1   force =     0.00000001   -0.00000006   -0.00000000
     atom   85 type  3   force =    -0.00000065   -0.00000038   -0.00000002
     atom   86 type  1   force =    -0.00000006    0.00000003   -0.00000000
     atom   87 type  3   force =     0.00000016   -0.00000010    0.00000001
     atom   88 type  1   force =    -0.00000013    0.00000002   -0.00000000
     atom   89 type  3   force =     0.00000033   -0.00000021   -0.00000000
     atom   90 type  1   force =    -0.00000012   -0.00000007   -0.00000000
     atom   91 type  3   force =    -0.00000070   -0.00000050   -0.00000001
     atom   92 type  1   force =    -0.00000005   -0.00000013   -0.00000000
     atom   93 type  3   force =    -0.00000079   -0.00000036   -0.00000000
     atom   94 type  1   force =    -0.00000000   -0.00000007    0.00000000
     atom   95 type  3   force =    -0.00000002    0.00000041    0.00000000
     atom   96 type  1   force =    -0.00000004    0.00000004   -0.00000000
     atom   97 type  3   force =    -0.00000000    0.00000020    0.00000001
     atom   98 type  2   force =    -0.00000000    0.00000000   -0.00000002

     Total force =     0.005160     Total SCF correction =     0.000005


     Computing stress (Cartesian axis) and pressure


     negative rho (up, down):  1.618E-03 1.618E-03
          total   stress  (Ry/bohr**3)                   (kbar)     P=   -2.95
  -0.00002530   0.00000000   0.00000000         -3.72      0.00      0.00
   0.00000000  -0.00002531  -0.00000000          0.00     -3.72     -0.00
   0.00000000  -0.00000000  -0.00000952          0.00     -0.00     -1.40

     kinetic stress (kbar)   2294.92     -0.00      0.00
                               -0.00   2294.92     -0.00
                                0.00     -0.00   2574.10

     local   stress (kbar) -45440.15     -0.00      0.00
                               -0.00 -45440.13      0.00
                                0.00      0.00  44266.96

     nonloc. stress (kbar)    787.53     -0.00      0.00
                               -0.00    787.53     -0.00
                                0.00     -0.00    734.16

     hartree stress (kbar)  21349.16      0.00      0.00
                                0.00  21349.16     -0.00
                                0.00     -0.00 -20867.92

     exc-cor stress (kbar)   -316.25      0.00      0.00
                                0.00   -316.25     -0.00
                                0.00     -0.00   -338.47

     corecor stress (kbar)   -245.48     -0.00     -0.00
                               -0.00   -245.48     -0.00
                               -0.00     -0.00   -237.69

     ewald   stress (kbar)  21566.54      0.00     -0.00
                                0.00  21566.53     -0.00
                               -0.00     -0.00 -26132.54

     hubbard stress (kbar)      0.00      0.00      0.00
                                0.00      0.00      0.00
                                0.00      0.00      0.00

     london  stress (kbar)      0.00      0.00      0.00
                                0.00      0.00      0.00
                                0.00      0.00      0.00

     XDM     stress (kbar)      0.00      0.00      0.00
                                0.00      0.00      0.00
                                0.00      0.00      0.00

     dft-nl  stress (kbar)      0.00      0.00      0.00
                                0.00      0.00      0.00
                                0.00      0.00      0.00

     TS-vdW  stress (kbar)      0.00      0.00      0.00
                                0.00      0.00      0.00
                                0.00      0.00      0.00



     bfgs converged in   8 scf cycles and   7 bfgs steps
     (criteria: energy <  1.0E-04 Ry, force <  1.0E-03 Ry/Bohr)

     End of BFGS Geometry Optimization

     Final energy   =   -1566.6997044259 Ry
Begin final coordinates

ATOMIC_POSITIONS (angstrom)
N        1.190671344   0.761349742  10.000138525
B       -1.269707503   3.609528277   9.999944905
N        0.000000000   2.823671633  10.000137442
B       -2.509278330   5.789339407   9.999932327
N       -1.246470805   5.044943927  10.000046838
B       -3.764438611   7.966312071   9.999936852
N       -2.506538039   7.234615932  10.000052591
B       -5.020312289  10.141637174   9.999936225
N       -3.765316796   9.416010644  10.000052667
B       -6.278047632  12.317235163   9.999931414
N       -5.025038094  11.596912117  10.000052267
B       -7.546141436  14.480684893   9.999946702
N       -6.291362020  13.783081325  10.000046453
B        2.506116303   1.467929422   9.999948246
N        3.737669735   0.730168866  10.000047608
B        1.269707503   3.609528277   9.999944905
N        2.509035610   2.897318749  10.000051975
B        0.000000000   5.789848638   9.999930398
N        1.246470805   5.044943927  10.000046838
B       -1.254950853   7.966186294   9.999935549
N        0.000000000   7.232351079  10.000051817
B       -2.510244674  10.140673176   9.999935766
N       -1.254972992   9.413447666  10.000051409
B       -3.765685744  12.315083694   9.999935293
N       -2.512371381  11.591410750  10.000052089
B       -5.022976387  14.490090476   9.999930965
N       -3.773732008  13.768829953  10.000051910
B        5.013774264   1.451555269   9.999933085
N        6.264052462   0.726590685  10.000053712
B        3.778103302   3.629960756   9.999936716
N        5.016709868   2.897303191  10.000054873
B        2.509278330   5.789339407   9.999932327
N        3.762829496   5.068978110  10.000054410
B        1.254950853   7.966186294   9.999935549
N        2.506538039   7.234615932  10.000052591
B        0.000000000  10.140974459   9.999934030
N        1.254972992   9.413447666  10.000051409
B       -1.254868164  12.314565336   9.999935606
N        0.000000000  11.590017820  10.000051045
B       -2.510735169  14.488760301   9.999936150
N       -1.257398713  13.765155462  10.000052531
B        7.526676181   1.450088867   9.999939737
N        8.782550625   0.726054658  10.000054932
B        6.278199728   3.624029301   9.999941160
N        7.527541675   2.897835775  10.000056124
B        5.022976507   5.798050375   9.999940544
N        6.272996284   5.070396621  10.000056557
B        3.764438611   7.966312071   9.999936852
N        5.018695016   7.243152579  10.000054607
B        2.510244674  10.140673176   9.999935766
N        3.765316796   9.416010644  10.000052667
B        1.254868165  12.314565336   9.999935606
N        2.512371381  11.591410750  10.000052089
B        0.000000000  14.488679074   9.999936887
N        1.257398713  13.765155462  10.000052531
B       10.038425069   1.450088867   9.999939737
N       11.301048789   0.726590685  10.000053712
B        8.782550625   3.623473714   9.999940602
N       10.037559575   2.897835775  10.000056124
B        7.529494254   5.795796838   9.999941950
N        8.782550625   5.070693941  10.000056810
B        6.274668357   7.967172769   9.999938707
N        7.528026402   7.243554402  10.000055996
B        5.020312289  10.141637174   9.999936225
N        6.273700149   9.416928169  10.000053514
B        3.765685744  12.315083694   9.999935293
N        5.025038095  11.596912117  10.000052267
B        2.510735170  14.488760301   9.999936150
N        3.773732009  13.768829953  10.000051910
B       12.551326986   1.451555269   9.999933085
N       13.827431515   0.730168866  10.000047608
B       11.286901522   3.624029301   9.999941160
N       12.548391382   2.897303191  10.000054873
B       10.035606996   5.795796838   9.999941950
N       11.292104966   5.070396621  10.000056557
B        8.782550625   7.966147799   9.999940006
N       10.037074849   7.243554402  10.000055996
B        7.527325258  10.135767411   9.999936968
N        8.782550625   9.417063429  10.000053997
B        6.278047633  12.317235163   9.999931414
N        7.528662484  11.591692169  10.000052755
B        5.022976388  14.490090476   9.999930965
N        6.291362021  13.783081325  10.000046453
B       15.058984947   1.467929422   9.999948246
N       16.374429906   0.761349742  10.000138525
B       13.786997949   3.629960756   9.999936716
N       15.056065641   2.897318749  10.000051975
B       12.542124743   5.798050375   9.999940544
N       13.802271755   5.068978110  10.000054410
B       11.290432894   7.967172769   9.999938707
N       12.546406234   7.243152579  10.000054607
B       10.037775993  10.135767411   9.999936968
N       11.291401102   9.416928169  10.000053514
B        8.782550625  12.297946714   9.999934606
N       10.036438767  11.591692169  10.000052755
B        7.546141437  14.480684893   9.999946702
N        8.782550625  13.763392661  10.000051202
C        0.000000000   1.448807402  10.000157672
End final coordinates



     Writing output data file aiida.save
 
     init_run     :     29.16s CPU     29.77s WALL (       1 calls)
     electrons    :   4489.46s CPU   4574.22s WALL (       8 calls)
     update_pot   :     33.05s CPU     33.87s WALL (       7 calls)
     forces       :     83.63s CPU     87.20s WALL (       8 calls)
     stress       :    587.61s CPU    592.15s WALL (       8 calls)

     Called by init_run:
     wfcinit      :     18.80s CPU     19.03s WALL (       1 calls)
     wfcinit:atom :      0.09s CPU      0.12s WALL (       4 calls)
     wfcinit:wfcr :     18.27s CPU     18.41s WALL (       4 calls)
     potinit      :      2.23s CPU      2.30s WALL (       1 calls)

     Called by electrons:
     c_bands      :   3616.56s CPU   3664.03s WALL (      95 calls)
     sum_band     :    701.60s CPU    719.92s WALL (      95 calls)
     v_of_rho     :     68.33s CPU     69.94s WALL (      99 calls)
     v_h          :      3.48s CPU      3.58s WALL (      99 calls)
     v_xc         :     75.20s CPU     76.97s WALL (     115 calls)
     newd         :     71.89s CPU     88.62s WALL (      99 calls)
     PAW_pot      :      7.38s CPU      7.43s WALL (     106 calls)
     mix_rho      :     15.60s CPU     16.00s WALL (      95 calls)

     Called by c_bands:
     init_us_2    :     28.67s CPU     28.82s WALL (     856 calls)
     cegterg      :   3452.93s CPU   3497.64s WALL (     380 calls)

     Called by sum_band:
     sum_band:bec :      0.55s CPU      0.56s WALL (     408 calls)
     addusdens    :    109.82s CPU    124.07s WALL (      95 calls)

     Called by *egterg:
     h_psi        :   2302.70s CPU   2315.61s WALL (    1811 calls)
     s_psi        :    249.72s CPU    249.92s WALL (    1811 calls)
     g_psi        :      5.31s CPU      5.34s WALL (    1427 calls)
     cdiaghg      :    337.69s CPU    337.92s WALL (    1763 calls)
     cegterg:over :    232.14s CPU    234.95s WALL (    1427 calls)
     cegterg:upda :    156.73s CPU    156.89s WALL (    1427 calls)
     cegterg:last :     76.33s CPU     76.42s WALL (     393 calls)

     Called by h_psi:
     h_psi:pot    :   2278.20s CPU   2290.98s WALL (    1811 calls)
     h_psi:calbec :    243.38s CPU    245.53s WALL (    1811 calls)
     vloc_psi     :   1782.68s CPU   1793.12s WALL (    1811 calls)
     add_vuspsi   :    252.10s CPU    252.32s WALL (    1811 calls)

     General routines
     calbec       :    371.76s CPU    375.00s WALL (    2379 calls)
     fft          :     95.49s CPU     98.90s WALL (    3373 calls)
     ffts         :      2.50s CPU      2.54s WALL (     388 calls)
     fftw         :   1499.38s CPU   1509.03s WALL (  584644 calls)
     interpolate  :     14.01s CPU     14.45s WALL (     388 calls)
     davcio       :      0.00s CPU      0.06s WALL (       4 calls)
 
     Parallel routines
     fft_scatter  :   1036.41s CPU   1048.32s WALL (  588405 calls)

     PAW routines
     PAW_pot      :      7.38s CPU      7.43s WALL (     106 calls)
     PAW_symme    :      0.21s CPU      0.22s WALL (     201 calls)
 
     PWSCF        :     1h27m CPU        1h28m WALL

 
   This run was terminated on:  21:54:38  29Feb2020            

=------------------------------------------------------------------------------=
   JOB DONE.
=------------------------------------------------------------------------------=
