
     Program PWSCF v.6.1 starts on  6Mar2020 at 13:25:42 

     This program is part of the open-source Quantum ESPRESSO suite
     for quantum simulation of materials; please cite
         "P. Giannozzi et al., J. Phys.:Condens. Matter 21 395502 (2009);
          URL http://www.quantum-espresso.org", 
     in publications or presentations arising from this work. More details at
     http://www.quantum-espresso.org/quote

     Parallel version (MPI), running on    84 processors
     K-points division:     npool     =       2
     R & G space division:  proc/nbgrp/npool/nimage =      42
     Reading input from aiida.in

     Current dimensions of program PWSCF are:
     Max number of different atomic species (ntypx) = 10
     Max number of k-points (npk) =  40000
     Max angular momentum in pseudopotentials (lmaxx) =  3
               file B.pbe-n-kjpaw_psl.0.1.UPF: wavefunction(s)  2P renormalized
               file C.pbe-n-kjpaw_psl.1.0.0.UPF: wavefunction(s)  2S 2P renormalized

     Subspace diagonalization in iterative solution of the eigenvalue problem:
     a serial algorithm will be used

 
     Parallelization info
     --------------------
     sticks:   dense  smooth     PW     G-vecs:    dense   smooth      PW
     Min        1314     657    167               249828    88333   11405
     Max        1315     658    168               249837    88338   11410
     Sum       55225   27619   7039             10492881  3710103  479135
 


     bravais-lattice index     =            0
     lattice parameter (alat)  =      42.6770  a.u.
     unit-cell volume          =   67315.1192 (a.u.)^3
     number of atoms/cell      =          162
     number of atomic types    =            3
     number of electrons       =       648.00
     number of Kohn-Sham states=          389
     kinetic-energy cutoff     =      55.0000  Ry
     charge density cutoff     =     440.0000  Ry
     convergence threshold     =      1.0E-09
     mixing beta               =       0.3000
     number of iterations used =            8  plain     mixing
     Exchange-correlation      = PBE ( 1  4  3  4 0 0)
     nstep                     =          200


     celldm(1)=  42.677011  celldm(2)=   0.000000  celldm(3)=   0.000000
     celldm(4)=   0.000000  celldm(5)=   0.000000  celldm(6)=   0.000000

     crystal axes: (cart. coord. in units of alat)
               a(1) = (   1.000000   0.000000   0.000000 )  
               a(2) = (  -0.500000   0.866025   0.000000 )  
               a(3) = (   0.000000   0.000000   1.000000 )  

     reciprocal axes: (cart. coord. in units 2 pi/alat)
               b(1) = (  1.000000  0.577350  0.000000 )  
               b(2) = (  0.000000  1.154701  0.000000 )  
               b(3) = (  0.000000  0.000000  1.000000 )  


     PseudoPot. # 1 for  B read from file:
     ./pseudo/B.pbe-n-kjpaw_psl.0.1.UPF
     MD5 check sum: b4345a612e0782cca08559f453f3313f
     Pseudo is Projector augmented-wave + core cor, Zval =  3.0
     Generated using "atomic" code by A. Dal Corso  v.5.0.99 svn rev. 10869
     Shape of augmentation charge: BESSEL
     Using radial grid of 1059 points,  4 beta functions with: 
                l(1) =   0
                l(2) =   0
                l(3) =   1
                l(4) =   1
     Q(r) pseudized with 0 coefficients 


     PseudoPot. # 2 for  C read from file:
     ./pseudo/C.pbe-n-kjpaw_psl.1.0.0.UPF
     MD5 check sum: 5d2aebdfa2cae82b50a7e79e9516da0f
     Pseudo is Projector augmented-wave + core cor, Zval =  4.0
     Generated using "atomic" code by A. Dal Corso  v.5.1
     Shape of augmentation charge: PSQ
     Using radial grid of 1073 points,  4 beta functions with: 
                l(1) =   0
                l(2) =   0
                l(3) =   1
                l(4) =   1
     Q(r) pseudized with 0 coefficients 


     PseudoPot. # 3 for  N read from file:
     ./pseudo/N.pbe.theos.UPF
     MD5 check sum: 1fde47ee573fe9ed3106b9b4217eb757
     Pseudo is Ultrasoft + core correction, Zval =  5.0
     Generated using "atomic" code by A. Dal Corso  v.5.1
     Using radial grid of 1085 points,  4 beta functions with: 
                l(1) =   0
                l(2) =   0
                l(3) =   1
                l(4) =   1
     Q(r) pseudized with 0 coefficients 


     atomic species   valence    mass     pseudopotential
        B              3.00    10.81100      B( 1.00)
        C              4.00    12.01070      C( 1.00)
        N              5.00    14.00670      N( 1.00)

     Starting magnetic structure 
     atomic species   magnetization
        B            0.400
        C            0.000
        N            0.000

      6 Sym. Ops. (no inversion) found ( 4 have fractional translation)


                                    s                        frac. trans.

      isym =  1     identity                                     

 cryst.   s( 1) = (     1          0          0      )
                  (     0          1          0      )
                  (     0          0          1      )

 cart.    s( 1) = (  1.0000000  0.0000000  0.0000000 )
                  (  0.0000000  1.0000000  0.0000000 )
                  (  0.0000000  0.0000000  1.0000000 )


      isym =  2     120 deg rotation - cryst. axis [0,0,1]       

 cryst.   s( 2) = (     0          1          0      )    f =( -0.1111111 )
                  (    -1         -1          0      )       ( -0.1111111 )
                  (     0          0          1      )       (  0.0000000 )

 cart.    s( 2) = ( -0.5000000 -0.8660254  0.0000000 )    f =( -0.0555556 )
                  (  0.8660254 -0.5000000  0.0000000 )       ( -0.0962250 )
                  (  0.0000000  0.0000000  1.0000000 )       (  0.0000000 )


      isym =  3     120 deg rotation - cryst. axis [0,0,-1]      

 cryst.   s( 3) = (    -1         -1          0      )    f =( -0.0000000 )
                  (     1          0          0      )       ( -0.1111111 )
                  (     0          0          1      )       (  0.0000000 )

 cart.    s( 3) = ( -0.5000000  0.8660254  0.0000000 )    f =(  0.0555556 )
                  ( -0.8660254 -0.5000000  0.0000000 )       ( -0.0962250 )
                  (  0.0000000  0.0000000  1.0000000 )       (  0.0000000 )


      isym =  4     inv. 180 deg rotation - cart. axis [1,0,0]   

 cryst.   s( 4) = (    -1          0          0      )
                  (     1          1          0      )
                  (     0          0          1      )

 cart.    s( 4) = ( -1.0000000  0.0000000  0.0000000 )
                  (  0.0000000  1.0000000  0.0000000 )
                  (  0.0000000  0.0000000  1.0000000 )


      isym =  5     inv. 180 deg rotation - cryst. axis [0,1,0]  

 cryst.   s( 5) = (     1          1          0      )    f =( -0.0000000 )
                  (     0         -1          0      )       ( -0.1111111 )
                  (     0          0          1      )       (  0.0000000 )

 cart.    s( 5) = (  0.5000000  0.8660254  0.0000000 )    f =(  0.0555556 )
                  (  0.8660254 -0.5000000  0.0000000 )       ( -0.0962250 )
                  (  0.0000000  0.0000000  1.0000000 )       (  0.0000000 )


      isym =  6     inv. 180 deg rotation - cryst. axis [1,1,0]  

 cryst.   s( 6) = (     0         -1          0      )    f =( -0.1111111 )
                  (    -1          0          0      )       ( -0.1111111 )
                  (     0          0          1      )       (  0.0000000 )

 cart.    s( 6) = (  0.5000000 -0.8660254  0.0000000 )    f =( -0.0555556 )
                  ( -0.8660254 -0.5000000  0.0000000 )       ( -0.0962250 )
                  (  0.0000000  0.0000000  1.0000000 )       (  0.0000000 )


   Cartesian axes

     site n.     atom                  positions (alat units)
         1           N   tau(   1) = (   0.0555556   0.0320750   0.4427972  )
         2           B   tau(   2) = (  -0.0555556   0.1603751   0.4427972  )
         3           N   tau(   3) = (   0.0000000   0.1283001   0.4427972  )
         4           B   tau(   4) = (  -0.1111111   0.2566001   0.4427972  )
         5           N   tau(   5) = (  -0.0555556   0.2245251   0.4427972  )
         6           B   tau(   6) = (  -0.1666667   0.3528252   0.4427972  )
         7           N   tau(   7) = (  -0.1111111   0.3207501   0.4427972  )
         8           B   tau(   8) = (  -0.2222222   0.4490502   0.4427972  )
         9           N   tau(   9) = (  -0.1666667   0.4169752   0.4427972  )
        10           B   tau(  10) = (  -0.2777778   0.5452753   0.4427972  )
        11           N   tau(  11) = (  -0.2222222   0.5132002   0.4427972  )
        12           B   tau(  12) = (  -0.3333333   0.6415003   0.4427972  )
        13           N   tau(  13) = (  -0.2777778   0.6094253   0.4427972  )
        14           B   tau(  14) = (  -0.3888889   0.7377253   0.4427972  )
        15           N   tau(  15) = (  -0.3333333   0.7056503   0.4427972  )
        16           B   tau(  16) = (  -0.4444444   0.8339504   0.4427972  )
        17           N   tau(  17) = (  -0.3888889   0.8018754   0.4427972  )
        18           B   tau(  18) = (   0.1111111   0.0641500   0.4427972  )
        19           N   tau(  19) = (   0.1666667   0.0320750   0.4427972  )
        20           B   tau(  20) = (   0.0555556   0.1603751   0.4427972  )
        21           N   tau(  21) = (   0.1111111   0.1283001   0.4427972  )
        22           B   tau(  22) = (   0.0000000   0.2566001   0.4427972  )
        23           N   tau(  23) = (   0.0555556   0.2245251   0.4427972  )
        24           B   tau(  24) = (  -0.0555556   0.3528252   0.4427972  )
        25           N   tau(  25) = (   0.0000000   0.3207501   0.4427972  )
        26           B   tau(  26) = (  -0.1111111   0.4490502   0.4427972  )
        27           N   tau(  27) = (  -0.0555556   0.4169752   0.4427972  )
        28           B   tau(  28) = (  -0.1666667   0.5452753   0.4427972  )
        29           N   tau(  29) = (  -0.1111111   0.5132002   0.4427972  )
        30           B   tau(  30) = (  -0.2222222   0.6415003   0.4427972  )
        31           N   tau(  31) = (  -0.1666667   0.6094253   0.4427972  )
        32           B   tau(  32) = (  -0.2777778   0.7377253   0.4427972  )
        33           N   tau(  33) = (  -0.2222222   0.7056503   0.4427972  )
        34           B   tau(  34) = (  -0.3333333   0.8339504   0.4427972  )
        35           N   tau(  35) = (  -0.2777778   0.8018754   0.4427972  )
        36           B   tau(  36) = (   0.2222222   0.0641500   0.4427972  )
        37           N   tau(  37) = (   0.2777778   0.0320750   0.4427972  )
        38           B   tau(  38) = (   0.1666667   0.1603751   0.4427972  )
        39           N   tau(  39) = (   0.2222222   0.1283001   0.4427972  )
        40           B   tau(  40) = (   0.1111111   0.2566001   0.4427972  )
        41           N   tau(  41) = (   0.1666667   0.2245251   0.4427972  )
        42           B   tau(  42) = (   0.0555556   0.3528252   0.4427972  )
        43           N   tau(  43) = (   0.1111111   0.3207501   0.4427972  )
        44           B   tau(  44) = (   0.0000000   0.4490502   0.4427972  )
        45           N   tau(  45) = (   0.0555556   0.4169752   0.4427972  )
        46           B   tau(  46) = (  -0.0555556   0.5452753   0.4427972  )
        47           N   tau(  47) = (   0.0000000   0.5132002   0.4427972  )
        48           B   tau(  48) = (  -0.1111111   0.6415003   0.4427972  )
        49           N   tau(  49) = (  -0.0555556   0.6094253   0.4427972  )
        50           B   tau(  50) = (  -0.1666667   0.7377253   0.4427972  )
        51           N   tau(  51) = (  -0.1111111   0.7056503   0.4427972  )
        52           B   tau(  52) = (  -0.2222222   0.8339504   0.4427972  )
        53           N   tau(  53) = (  -0.1666667   0.8018754   0.4427972  )
        54           B   tau(  54) = (   0.3333333   0.0641500   0.4427972  )
        55           N   tau(  55) = (   0.3888889   0.0320750   0.4427972  )
        56           B   tau(  56) = (   0.2777778   0.1603751   0.4427972  )
        57           N   tau(  57) = (   0.3333333   0.1283001   0.4427972  )
        58           B   tau(  58) = (   0.2222222   0.2566001   0.4427972  )
        59           N   tau(  59) = (   0.2777778   0.2245251   0.4427972  )
        60           B   tau(  60) = (   0.1666667   0.3528252   0.4427972  )
        61           N   tau(  61) = (   0.2222222   0.3207501   0.4427972  )
        62           B   tau(  62) = (   0.1111111   0.4490502   0.4427972  )
        63           N   tau(  63) = (   0.1666667   0.4169752   0.4427972  )
        64           B   tau(  64) = (   0.0555556   0.5452753   0.4427972  )
        65           N   tau(  65) = (   0.1111111   0.5132002   0.4427972  )
        66           B   tau(  66) = (   0.0000000   0.6415003   0.4427972  )
        67           N   tau(  67) = (   0.0555556   0.6094253   0.4427972  )
        68           B   tau(  68) = (  -0.0555556   0.7377253   0.4427972  )
        69           N   tau(  69) = (   0.0000000   0.7056503   0.4427972  )
        70           B   tau(  70) = (  -0.1111111   0.8339504   0.4427972  )
        71           N   tau(  71) = (  -0.0555556   0.8018754   0.4427972  )
        72           B   tau(  72) = (   0.4444444   0.0641500   0.4427972  )
        73           N   tau(  73) = (   0.5000000   0.0320750   0.4427972  )
        74           B   tau(  74) = (   0.3888889   0.1603751   0.4427972  )
        75           N   tau(  75) = (   0.4444444   0.1283001   0.4427972  )
        76           B   tau(  76) = (   0.3333333   0.2566001   0.4427972  )
        77           N   tau(  77) = (   0.3888889   0.2245251   0.4427972  )
        78           B   tau(  78) = (   0.2777778   0.3528252   0.4427972  )
        79           N   tau(  79) = (   0.3333333   0.3207501   0.4427972  )
        80           B   tau(  80) = (   0.2222222   0.4490502   0.4427972  )
        81           N   tau(  81) = (   0.2777778   0.4169752   0.4427972  )
        82           B   tau(  82) = (   0.1666667   0.5452753   0.4427972  )
        83           N   tau(  83) = (   0.2222222   0.5132002   0.4427972  )
        84           B   tau(  84) = (   0.1111111   0.6415003   0.4427972  )
        85           N   tau(  85) = (   0.1666667   0.6094253   0.4427972  )
        86           B   tau(  86) = (   0.0555556   0.7377253   0.4427972  )
        87           N   tau(  87) = (   0.1111111   0.7056503   0.4427972  )
        88           B   tau(  88) = (   0.0000000   0.8339504   0.4427972  )
        89           N   tau(  89) = (   0.0555556   0.8018754   0.4427972  )
        90           B   tau(  90) = (   0.5555556   0.0641500   0.4427972  )
        91           N   tau(  91) = (   0.6111111   0.0320750   0.4427972  )
        92           B   tau(  92) = (   0.5000000   0.1603751   0.4427972  )
        93           N   tau(  93) = (   0.5555556   0.1283001   0.4427972  )
        94           B   tau(  94) = (   0.4444444   0.2566001   0.4427972  )
        95           N   tau(  95) = (   0.5000000   0.2245251   0.4427972  )
        96           B   tau(  96) = (   0.3888889   0.3528252   0.4427972  )
        97           N   tau(  97) = (   0.4444444   0.3207501   0.4427972  )
        98           B   tau(  98) = (   0.3333333   0.4490502   0.4427972  )
        99           N   tau(  99) = (   0.3888889   0.4169752   0.4427972  )
       100           B   tau( 100) = (   0.2777778   0.5452753   0.4427972  )
       101           N   tau( 101) = (   0.3333333   0.5132002   0.4427972  )
       102           B   tau( 102) = (   0.2222222   0.6415003   0.4427972  )
       103           N   tau( 103) = (   0.2777778   0.6094253   0.4427972  )
       104           B   tau( 104) = (   0.1666667   0.7377253   0.4427972  )
       105           N   tau( 105) = (   0.2222222   0.7056503   0.4427972  )
       106           B   tau( 106) = (   0.1111111   0.8339504   0.4427972  )
       107           N   tau( 107) = (   0.1666667   0.8018754   0.4427972  )
       108           B   tau( 108) = (   0.6666667   0.0641500   0.4427972  )
       109           N   tau( 109) = (   0.7222222   0.0320750   0.4427972  )
       110           B   tau( 110) = (   0.6111111   0.1603751   0.4427972  )
       111           N   tau( 111) = (   0.6666667   0.1283001   0.4427972  )
       112           B   tau( 112) = (   0.5555556   0.2566001   0.4427972  )
       113           N   tau( 113) = (   0.6111111   0.2245251   0.4427972  )
       114           B   tau( 114) = (   0.5000000   0.3528252   0.4427972  )
       115           N   tau( 115) = (   0.5555556   0.3207501   0.4427972  )
       116           B   tau( 116) = (   0.4444444   0.4490502   0.4427972  )
       117           N   tau( 117) = (   0.5000000   0.4169752   0.4427972  )
       118           B   tau( 118) = (   0.3888889   0.5452753   0.4427972  )
       119           N   tau( 119) = (   0.4444444   0.5132002   0.4427972  )
       120           B   tau( 120) = (   0.3333333   0.6415003   0.4427972  )
       121           N   tau( 121) = (   0.3888889   0.6094253   0.4427972  )
       122           B   tau( 122) = (   0.2777778   0.7377253   0.4427972  )
       123           N   tau( 123) = (   0.3333333   0.7056503   0.4427972  )
       124           B   tau( 124) = (   0.2222222   0.8339504   0.4427972  )
       125           N   tau( 125) = (   0.2777778   0.8018754   0.4427972  )
       126           B   tau( 126) = (   0.7777778   0.0641500   0.4427972  )
       127           N   tau( 127) = (   0.8333333   0.0320750   0.4427972  )
       128           B   tau( 128) = (   0.7222222   0.1603751   0.4427972  )
       129           N   tau( 129) = (   0.7777778   0.1283001   0.4427972  )
       130           B   tau( 130) = (   0.6666667   0.2566001   0.4427972  )
       131           N   tau( 131) = (   0.7222222   0.2245251   0.4427972  )
       132           B   tau( 132) = (   0.6111111   0.3528252   0.4427972  )
       133           N   tau( 133) = (   0.6666667   0.3207501   0.4427972  )
       134           B   tau( 134) = (   0.5555556   0.4490502   0.4427972  )
       135           N   tau( 135) = (   0.6111111   0.4169752   0.4427972  )
       136           B   tau( 136) = (   0.5000000   0.5452753   0.4427972  )
       137           N   tau( 137) = (   0.5555556   0.5132002   0.4427972  )
       138           B   tau( 138) = (   0.4444444   0.6415003   0.4427972  )
       139           N   tau( 139) = (   0.5000000   0.6094253   0.4427972  )
       140           B   tau( 140) = (   0.3888889   0.7377253   0.4427972  )
       141           N   tau( 141) = (   0.4444444   0.7056503   0.4427972  )
       142           B   tau( 142) = (   0.3333333   0.8339504   0.4427972  )
       143           N   tau( 143) = (   0.3888889   0.8018754   0.4427972  )
       144           B   tau( 144) = (   0.8888889   0.0641500   0.4427972  )
       145           N   tau( 145) = (   0.9444444   0.0320750   0.4427972  )
       146           B   tau( 146) = (   0.8333333   0.1603751   0.4427972  )
       147           N   tau( 147) = (   0.8888889   0.1283001   0.4427972  )
       148           B   tau( 148) = (   0.7777778   0.2566001   0.4427972  )
       149           N   tau( 149) = (   0.8333333   0.2245251   0.4427972  )
       150           B   tau( 150) = (   0.7222222   0.3528252   0.4427972  )
       151           N   tau( 151) = (   0.7777778   0.3207501   0.4427972  )
       152           B   tau( 152) = (   0.6666667   0.4490502   0.4427972  )
       153           N   tau( 153) = (   0.7222222   0.4169752   0.4427972  )
       154           B   tau( 154) = (   0.6111111   0.5452753   0.4427972  )
       155           N   tau( 155) = (   0.6666667   0.5132002   0.4427972  )
       156           B   tau( 156) = (   0.5555556   0.6415003   0.4427972  )
       157           N   tau( 157) = (   0.6111111   0.6094253   0.4427972  )
       158           B   tau( 158) = (   0.5000000   0.7377253   0.4427972  )
       159           N   tau( 159) = (   0.5555556   0.7056503   0.4427972  )
       160           B   tau( 160) = (   0.4444444   0.8339504   0.4427972  )
       161           N   tau( 161) = (   0.5000000   0.8018754   0.4427972  )
       162           C   tau( 162) = (   0.0000000   0.0641500   0.4427972  )

   Crystallographic axes

     site n.     atom                  positions (cryst. coord.)
         1           N   tau(   1) = (  0.0740741  0.0370370  0.4427972  )
         2           B   tau(   2) = (  0.0370370  0.1851852  0.4427972  )
         3           N   tau(   3) = (  0.0740741  0.1481481  0.4427972  )
         4           B   tau(   4) = (  0.0370370  0.2962963  0.4427972  )
         5           N   tau(   5) = (  0.0740741  0.2592593  0.4427972  )
         6           B   tau(   6) = (  0.0370370  0.4074074  0.4427972  )
         7           N   tau(   7) = (  0.0740741  0.3703704  0.4427972  )
         8           B   tau(   8) = (  0.0370370  0.5185185  0.4427972  )
         9           N   tau(   9) = (  0.0740741  0.4814815  0.4427972  )
        10           B   tau(  10) = (  0.0370370  0.6296296  0.4427972  )
        11           N   tau(  11) = (  0.0740741  0.5925926  0.4427972  )
        12           B   tau(  12) = (  0.0370370  0.7407407  0.4427972  )
        13           N   tau(  13) = (  0.0740741  0.7037037  0.4427972  )
        14           B   tau(  14) = (  0.0370370  0.8518519  0.4427972  )
        15           N   tau(  15) = (  0.0740741  0.8148148  0.4427972  )
        16           B   tau(  16) = (  0.0370370  0.9629630  0.4427972  )
        17           N   tau(  17) = (  0.0740741  0.9259259  0.4427972  )
        18           B   tau(  18) = (  0.1481481  0.0740741  0.4427972  )
        19           N   tau(  19) = (  0.1851852  0.0370370  0.4427972  )
        20           B   tau(  20) = (  0.1481481  0.1851852  0.4427972  )
        21           N   tau(  21) = (  0.1851852  0.1481481  0.4427972  )
        22           B   tau(  22) = (  0.1481481  0.2962963  0.4427972  )
        23           N   tau(  23) = (  0.1851852  0.2592593  0.4427972  )
        24           B   tau(  24) = (  0.1481481  0.4074074  0.4427972  )
        25           N   tau(  25) = (  0.1851852  0.3703704  0.4427972  )
        26           B   tau(  26) = (  0.1481481  0.5185185  0.4427972  )
        27           N   tau(  27) = (  0.1851852  0.4814815  0.4427972  )
        28           B   tau(  28) = (  0.1481481  0.6296296  0.4427972  )
        29           N   tau(  29) = (  0.1851852  0.5925926  0.4427972  )
        30           B   tau(  30) = (  0.1481481  0.7407407  0.4427972  )
        31           N   tau(  31) = (  0.1851852  0.7037037  0.4427972  )
        32           B   tau(  32) = (  0.1481481  0.8518519  0.4427972  )
        33           N   tau(  33) = (  0.1851852  0.8148148  0.4427972  )
        34           B   tau(  34) = (  0.1481481  0.9629630  0.4427972  )
        35           N   tau(  35) = (  0.1851852  0.9259259  0.4427972  )
        36           B   tau(  36) = (  0.2592593  0.0740741  0.4427972  )
        37           N   tau(  37) = (  0.2962963  0.0370370  0.4427972  )
        38           B   tau(  38) = (  0.2592593  0.1851852  0.4427972  )
        39           N   tau(  39) = (  0.2962963  0.1481481  0.4427972  )
        40           B   tau(  40) = (  0.2592593  0.2962963  0.4427972  )
        41           N   tau(  41) = (  0.2962963  0.2592593  0.4427972  )
        42           B   tau(  42) = (  0.2592593  0.4074074  0.4427972  )
        43           N   tau(  43) = (  0.2962963  0.3703704  0.4427972  )
        44           B   tau(  44) = (  0.2592593  0.5185185  0.4427972  )
        45           N   tau(  45) = (  0.2962963  0.4814815  0.4427972  )
        46           B   tau(  46) = (  0.2592593  0.6296296  0.4427972  )
        47           N   tau(  47) = (  0.2962963  0.5925926  0.4427972  )
        48           B   tau(  48) = (  0.2592593  0.7407407  0.4427972  )
        49           N   tau(  49) = (  0.2962963  0.7037037  0.4427972  )
        50           B   tau(  50) = (  0.2592593  0.8518519  0.4427972  )
        51           N   tau(  51) = (  0.2962963  0.8148148  0.4427972  )
        52           B   tau(  52) = (  0.2592593  0.9629630  0.4427972  )
        53           N   tau(  53) = (  0.2962963  0.9259259  0.4427972  )
        54           B   tau(  54) = (  0.3703704  0.0740741  0.4427972  )
        55           N   tau(  55) = (  0.4074074  0.0370370  0.4427972  )
        56           B   tau(  56) = (  0.3703704  0.1851852  0.4427972  )
        57           N   tau(  57) = (  0.4074074  0.1481481  0.4427972  )
        58           B   tau(  58) = (  0.3703704  0.2962963  0.4427972  )
        59           N   tau(  59) = (  0.4074074  0.2592593  0.4427972  )
        60           B   tau(  60) = (  0.3703704  0.4074074  0.4427972  )
        61           N   tau(  61) = (  0.4074074  0.3703704  0.4427972  )
        62           B   tau(  62) = (  0.3703704  0.5185185  0.4427972  )
        63           N   tau(  63) = (  0.4074074  0.4814815  0.4427972  )
        64           B   tau(  64) = (  0.3703704  0.6296296  0.4427972  )
        65           N   tau(  65) = (  0.4074074  0.5925926  0.4427972  )
        66           B   tau(  66) = (  0.3703704  0.7407407  0.4427972  )
        67           N   tau(  67) = (  0.4074074  0.7037037  0.4427972  )
        68           B   tau(  68) = (  0.3703704  0.8518519  0.4427972  )
        69           N   tau(  69) = (  0.4074074  0.8148148  0.4427972  )
        70           B   tau(  70) = (  0.3703704  0.9629630  0.4427972  )
        71           N   tau(  71) = (  0.4074074  0.9259259  0.4427972  )
        72           B   tau(  72) = (  0.4814815  0.0740741  0.4427972  )
        73           N   tau(  73) = (  0.5185185  0.0370370  0.4427972  )
        74           B   tau(  74) = (  0.4814815  0.1851852  0.4427972  )
        75           N   tau(  75) = (  0.5185185  0.1481481  0.4427972  )
        76           B   tau(  76) = (  0.4814815  0.2962963  0.4427972  )
        77           N   tau(  77) = (  0.5185185  0.2592593  0.4427972  )
        78           B   tau(  78) = (  0.4814815  0.4074074  0.4427972  )
        79           N   tau(  79) = (  0.5185185  0.3703704  0.4427972  )
        80           B   tau(  80) = (  0.4814815  0.5185185  0.4427972  )
        81           N   tau(  81) = (  0.5185185  0.4814815  0.4427972  )
        82           B   tau(  82) = (  0.4814815  0.6296296  0.4427972  )
        83           N   tau(  83) = (  0.5185185  0.5925926  0.4427972  )
        84           B   tau(  84) = (  0.4814815  0.7407407  0.4427972  )
        85           N   tau(  85) = (  0.5185185  0.7037037  0.4427972  )
        86           B   tau(  86) = (  0.4814815  0.8518519  0.4427972  )
        87           N   tau(  87) = (  0.5185185  0.8148148  0.4427972  )
        88           B   tau(  88) = (  0.4814815  0.9629630  0.4427972  )
        89           N   tau(  89) = (  0.5185185  0.9259259  0.4427972  )
        90           B   tau(  90) = (  0.5925926  0.0740741  0.4427972  )
        91           N   tau(  91) = (  0.6296296  0.0370370  0.4427972  )
        92           B   tau(  92) = (  0.5925926  0.1851852  0.4427972  )
        93           N   tau(  93) = (  0.6296296  0.1481481  0.4427972  )
        94           B   tau(  94) = (  0.5925926  0.2962963  0.4427972  )
        95           N   tau(  95) = (  0.6296296  0.2592593  0.4427972  )
        96           B   tau(  96) = (  0.5925926  0.4074074  0.4427972  )
        97           N   tau(  97) = (  0.6296296  0.3703704  0.4427972  )
        98           B   tau(  98) = (  0.5925926  0.5185185  0.4427972  )
        99           N   tau(  99) = (  0.6296296  0.4814815  0.4427972  )
       100           B   tau( 100) = (  0.5925926  0.6296296  0.4427972  )
       101           N   tau( 101) = (  0.6296296  0.5925926  0.4427972  )
       102           B   tau( 102) = (  0.5925926  0.7407407  0.4427972  )
       103           N   tau( 103) = (  0.6296296  0.7037037  0.4427972  )
       104           B   tau( 104) = (  0.5925926  0.8518519  0.4427972  )
       105           N   tau( 105) = (  0.6296296  0.8148148  0.4427972  )
       106           B   tau( 106) = (  0.5925926  0.9629630  0.4427972  )
       107           N   tau( 107) = (  0.6296296  0.9259259  0.4427972  )
       108           B   tau( 108) = (  0.7037037  0.0740741  0.4427972  )
       109           N   tau( 109) = (  0.7407407  0.0370370  0.4427972  )
       110           B   tau( 110) = (  0.7037037  0.1851852  0.4427972  )
       111           N   tau( 111) = (  0.7407407  0.1481481  0.4427972  )
       112           B   tau( 112) = (  0.7037037  0.2962963  0.4427972  )
       113           N   tau( 113) = (  0.7407407  0.2592593  0.4427972  )
       114           B   tau( 114) = (  0.7037037  0.4074074  0.4427972  )
       115           N   tau( 115) = (  0.7407407  0.3703704  0.4427972  )
       116           B   tau( 116) = (  0.7037037  0.5185185  0.4427972  )
       117           N   tau( 117) = (  0.7407407  0.4814815  0.4427972  )
       118           B   tau( 118) = (  0.7037037  0.6296296  0.4427972  )
       119           N   tau( 119) = (  0.7407407  0.5925926  0.4427972  )
       120           B   tau( 120) = (  0.7037037  0.7407407  0.4427972  )
       121           N   tau( 121) = (  0.7407407  0.7037037  0.4427972  )
       122           B   tau( 122) = (  0.7037037  0.8518519  0.4427972  )
       123           N   tau( 123) = (  0.7407407  0.8148148  0.4427972  )
       124           B   tau( 124) = (  0.7037037  0.9629630  0.4427972  )
       125           N   tau( 125) = (  0.7407407  0.9259259  0.4427972  )
       126           B   tau( 126) = (  0.8148148  0.0740741  0.4427972  )
       127           N   tau( 127) = (  0.8518519  0.0370370  0.4427972  )
       128           B   tau( 128) = (  0.8148148  0.1851852  0.4427972  )
       129           N   tau( 129) = (  0.8518519  0.1481481  0.4427972  )
       130           B   tau( 130) = (  0.8148148  0.2962963  0.4427972  )
       131           N   tau( 131) = (  0.8518519  0.2592593  0.4427972  )
       132           B   tau( 132) = (  0.8148148  0.4074074  0.4427972  )
       133           N   tau( 133) = (  0.8518519  0.3703704  0.4427972  )
       134           B   tau( 134) = (  0.8148148  0.5185185  0.4427972  )
       135           N   tau( 135) = (  0.8518519  0.4814815  0.4427972  )
       136           B   tau( 136) = (  0.8148148  0.6296296  0.4427972  )
       137           N   tau( 137) = (  0.8518519  0.5925926  0.4427972  )
       138           B   tau( 138) = (  0.8148148  0.7407407  0.4427972  )
       139           N   tau( 139) = (  0.8518519  0.7037037  0.4427972  )
       140           B   tau( 140) = (  0.8148148  0.8518519  0.4427972  )
       141           N   tau( 141) = (  0.8518519  0.8148148  0.4427972  )
       142           B   tau( 142) = (  0.8148148  0.9629630  0.4427972  )
       143           N   tau( 143) = (  0.8518519  0.9259259  0.4427972  )
       144           B   tau( 144) = (  0.9259259  0.0740741  0.4427972  )
       145           N   tau( 145) = (  0.9629630  0.0370370  0.4427972  )
       146           B   tau( 146) = (  0.9259259  0.1851852  0.4427972  )
       147           N   tau( 147) = (  0.9629630  0.1481481  0.4427972  )
       148           B   tau( 148) = (  0.9259259  0.2962963  0.4427972  )
       149           N   tau( 149) = (  0.9629630  0.2592593  0.4427972  )
       150           B   tau( 150) = (  0.9259259  0.4074074  0.4427972  )
       151           N   tau( 151) = (  0.9629630  0.3703704  0.4427972  )
       152           B   tau( 152) = (  0.9259259  0.5185185  0.4427972  )
       153           N   tau( 153) = (  0.9629630  0.4814815  0.4427972  )
       154           B   tau( 154) = (  0.9259259  0.6296296  0.4427972  )
       155           N   tau( 155) = (  0.9629630  0.5925926  0.4427972  )
       156           B   tau( 156) = (  0.9259259  0.7407407  0.4427972  )
       157           N   tau( 157) = (  0.9629630  0.7037037  0.4427972  )
       158           B   tau( 158) = (  0.9259259  0.8518519  0.4427972  )
       159           N   tau( 159) = (  0.9629630  0.8148148  0.4427972  )
       160           B   tau( 160) = (  0.9259259  0.9629630  0.4427972  )
       161           N   tau( 161) = (  0.9629630  0.9259259  0.4427972  )
       162           C   tau( 162) = (  0.0370370  0.0740741  0.4427972  )

     number of k points=     2  Marzari-Vanderbilt smearing, width (Ry)=  0.0050
                       cart. coord. in units 2pi/alat
        k(    1) = (   0.0000000   0.0000000   0.0000000), wk =   0.2500000
        k(    2) = (   0.0000000  -0.5773503   0.0000000), wk =   0.7500000

                       cryst. coord.
        k(    1) = (   0.0000000   0.0000000   0.0000000), wk =   0.2500000
        k(    2) = (   0.0000000  -0.5000000   0.0000000), wk =   0.7500000

     Dense  grid: 10492881 G-vectors     FFT dimensions: ( 288, 288, 288)

     Smooth grid:  3710103 G-vectors     FFT dimensions: ( 216, 216, 216)

     Estimated max dynamical RAM per process >    1265.36MB

     Estimated total allocated dynamical RAM >  106290.32MB
     Generating pointlists ...
     new r_m :   0.0265 (alat units)  1.1293 (a.u.) for type    1
     new r_m :   0.0265 (alat units)  1.1293 (a.u.) for type    2
     new r_m :   0.0265 (alat units)  1.1293 (a.u.) for type    3

     Check: negative/imaginary core charge=   -0.000001    0.000000

     Initial potential from superposition of free atoms
     Check: negative starting charge=(component1):   -0.001061
     Check: negative starting charge=(component2):   -0.001016

     starting charge  648.97667, renormalised to  648.00000

     negative rho (up, down):  1.059E-03 1.014E-03
     Starting wfc are  648 randomized atomic wfcs
     Checking if some PAW data can be deallocated... 
       node    0, deallocated PAW data for type:  2
       node    1, deallocated PAW data for type:  2
       node    2, deallocated PAW data for type:  2
       node    3, deallocated PAW data for type:  2
       node    4, deallocated PAW data for type:  2
       node    5, deallocated PAW data for type:  2
       node    6, deallocated PAW data for type:  2
       node    7, deallocated PAW data for type:  2
       node    8, deallocated PAW data for type:  2
       node    9, deallocated PAW data for type:  2
       node   10, deallocated PAW data for type:  2
       node   11, deallocated PAW data for type:  2
       node   12, deallocated PAW data for type:  2
       node   13, deallocated PAW data for type:  2
       node   14, deallocated PAW data for type:  2
       node   15, deallocated PAW data for type:  2
       node   16, deallocated PAW data for type:  2
       node   17, deallocated PAW data for type:  2
       node   18, deallocated PAW data for type:  2
       node   19, deallocated PAW data for type:  2
       node   20, deallocated PAW data for type:  2
       node   21, deallocated PAW data for type:  2
       node   22, deallocated PAW data for type:  2
       node   23, deallocated PAW data for type:  2
       node   24, deallocated PAW data for type:  2
       node   25, deallocated PAW data for type:  2
       node   26, deallocated PAW data for type:  2
       node   27, deallocated PAW data for type:  2
       node   28, deallocated PAW data for type:  2
       node   29, deallocated PAW data for type:  2
       node   30, deallocated PAW data for type:  2
       node   31, deallocated PAW data for type:  2
       node   32, deallocated PAW data for type:  2
       node   33, deallocated PAW data for type:  2
       node   34, deallocated PAW data for type:  2
       node   35, deallocated PAW data for type:  2
       node   36, deallocated PAW data for type:  2
       node   37, deallocated PAW data for type:  2
       node   38, deallocated PAW data for type:  2
       node   39, deallocated PAW data for type:  2
       node   40, deallocated PAW data for type:  2
       node   41, deallocated PAW data for type:  2
       node   42, deallocated PAW data for type:  2
       node   43, deallocated PAW data for type:  2
       node   44, deallocated PAW data for type:  2
       node   45, deallocated PAW data for type:  2
       node   46, deallocated PAW data for type:  2
       node   47, deallocated PAW data for type:  2
       node   48, deallocated PAW data for type:  2
       node   49, deallocated PAW data for type:  2
       node   50, deallocated PAW data for type:  2
       node   51, deallocated PAW data for type:  2
       node   52, deallocated PAW data for type:  2
       node   53, deallocated PAW data for type:  2
       node   54, deallocated PAW data for type:  2
       node   55, deallocated PAW data for type:  2
       node   56, deallocated PAW data for type:  2
       node   57, deallocated PAW data for type:  2
       node   58, deallocated PAW data for type:  2
       node   59, deallocated PAW data for type:  2
       node   60, deallocated PAW data for type:  2
       node   61, deallocated PAW data for type:  2
       node   62, deallocated PAW data for type:  2
       node   63, deallocated PAW data for type:  2
       node   64, deallocated PAW data for type:  2
       node   65, deallocated PAW data for type:  2
       node   66, deallocated PAW data for type:  2
       node   67, deallocated PAW data for type:  2
       node   68, deallocated PAW data for type:  2
       node   69, deallocated PAW data for type:  2
       node   70, deallocated PAW data for type:  2
       node   71, deallocated PAW data for type:  2
       node   72, deallocated PAW data for type:  2
       node   73, deallocated PAW data for type:  2
       node   74, deallocated PAW data for type:  2
       node   75, deallocated PAW data for type:  2
       node   76, deallocated PAW data for type:  2
       node   77, deallocated PAW data for type:  2
       node   78, deallocated PAW data for type:  1
       node   78, deallocated PAW data for type:  2
       node   79, deallocated PAW data for type:  2
       node   80, deallocated PAW data for type:  1
       node   80, deallocated PAW data for type:  2
       node   81, deallocated PAW data for type:  2
       node   82, deallocated PAW data for type:  1
       node   82, deallocated PAW data for type:  2
       node   83, deallocated PAW data for type:  1

     total cpu time spent up to now is       74.4 secs

     per-process dynamical memory:   691.8 Mb

     Self-consistent Calculation

     iteration #  1     ecut=    55.00 Ry     beta=0.30
     Davidson diagonalization with overlap
     ethr =  1.00E-02,  avg # of iterations =  3.0

     negative rho (up, down):  8.011E-04 8.451E-04

     total cpu time spent up to now is      201.3 secs

     total energy              =   -2582.21048604 Ry
     Harris-Foulkes estimate   =   -2594.77091999 Ry
     estimated scf accuracy    <      35.00156032 Ry

     total magnetization       =    -0.00 Bohr mag/cell
     absolute magnetization    =    13.70 Bohr mag/cell

     iteration #  2     ecut=    55.00 Ry     beta=0.30
     Davidson diagonalization with overlap
     ethr =  5.40E-03,  avg # of iterations =  2.0

     negative rho (up, down):  1.512E-03 1.606E-03

     total cpu time spent up to now is      285.7 secs

     total energy              =   -2583.37171905 Ry
     Harris-Foulkes estimate   =   -2585.31483681 Ry
     estimated scf accuracy    <       6.04228662 Ry

     total magnetization       =     0.00 Bohr mag/cell
     absolute magnetization    =    12.90 Bohr mag/cell

     iteration #  3     ecut=    55.00 Ry     beta=0.30
     Davidson diagonalization with overlap
     c_bands:  4 eigenvalues not converged
     ethr =  9.32E-04,  avg # of iterations = 19.2

     negative rho (up, down):  2.250E-03 2.323E-03

     total cpu time spent up to now is      485.9 secs

     total energy              =   -2584.91967909 Ry
     Harris-Foulkes estimate   =   -2585.49986162 Ry
     estimated scf accuracy    <       1.57146703 Ry

     total magnetization       =     0.08 Bohr mag/cell
     absolute magnetization    =     9.10 Bohr mag/cell

     iteration #  4     ecut=    55.00 Ry     beta=0.30
     Davidson diagonalization with overlap
     ethr =  2.43E-04,  avg # of iterations = 13.0

     negative rho (up, down):  2.751E-03 2.823E-03

     total cpu time spent up to now is      685.7 secs

     total energy              =   -2585.10383162 Ry
     Harris-Foulkes estimate   =   -2586.04928405 Ry
     estimated scf accuracy    <       2.31891901 Ry

     total magnetization       =    -0.00 Bohr mag/cell
     absolute magnetization    =     5.46 Bohr mag/cell

     iteration #  5     ecut=    55.00 Ry     beta=0.30
     Davidson diagonalization with overlap
     ethr =  2.43E-04,  avg # of iterations =  4.0

     negative rho (up, down):  2.829E-03 2.925E-03

     total cpu time spent up to now is      802.7 secs

     total energy              =   -2585.39517806 Ry
     Harris-Foulkes estimate   =   -2585.40941978 Ry
     estimated scf accuracy    <       0.11093222 Ry

     total magnetization       =    -0.09 Bohr mag/cell
     absolute magnetization    =     3.46 Bohr mag/cell

     iteration #  6     ecut=    55.00 Ry     beta=0.30
     Davidson diagonalization with overlap
     c_bands:  2 eigenvalues not converged
     c_bands:  1 eigenvalues not converged
     ethr =  1.71E-05,  avg # of iterations = 20.0

     negative rho (up, down):  3.244E-03 3.247E-03

     total cpu time spent up to now is     1026.7 secs

     total energy              =   -2585.44741653 Ry
     Harris-Foulkes estimate   =   -2585.43472272 Ry
     estimated scf accuracy    <       0.01674661 Ry

     total magnetization       =    -0.00 Bohr mag/cell
     absolute magnetization    =     3.40 Bohr mag/cell

     iteration #  7     ecut=    55.00 Ry     beta=0.30
     Davidson diagonalization with overlap
     c_bands:  2 eigenvalues not converged
     ethr =  2.58E-06,  avg # of iterations = 17.5

     negative rho (up, down):  3.312E-03 3.312E-03

     total cpu time spent up to now is     1229.9 secs

     total energy              =   -2585.45561758 Ry
     Harris-Foulkes estimate   =   -2585.45510816 Ry
     estimated scf accuracy    <       0.00390207 Ry

     total magnetization       =    -0.00 Bohr mag/cell
     absolute magnetization    =     1.66 Bohr mag/cell

     iteration #  8     ecut=    55.00 Ry     beta=0.30
     Davidson diagonalization with overlap
     ethr =  6.02E-07,  avg # of iterations =  8.0

     negative rho (up, down):  3.322E-03 3.337E-03

     total cpu time spent up to now is     1356.7 secs

     total energy              =   -2585.45733098 Ry
     Harris-Foulkes estimate   =   -2585.45642577 Ry
     estimated scf accuracy    <       0.00086482 Ry

     total magnetization       =    -0.00 Bohr mag/cell
     absolute magnetization    =     1.15 Bohr mag/cell

     iteration #  9     ecut=    55.00 Ry     beta=0.30
     Davidson diagonalization with overlap
     ethr =  1.33E-07,  avg # of iterations =  3.5

     negative rho (up, down):  3.338E-03 3.355E-03

     total cpu time spent up to now is     1509.6 secs

     total energy              =   -2585.45809050 Ry
     Harris-Foulkes estimate   =   -2585.45796811 Ry
     estimated scf accuracy    <       0.00067258 Ry

     total magnetization       =     0.00 Bohr mag/cell
     absolute magnetization    =     0.55 Bohr mag/cell

     iteration # 10     ecut=    55.00 Ry     beta=0.30
     Davidson diagonalization with overlap
     ethr =  1.04E-07,  avg # of iterations =  2.0

     negative rho (up, down):  3.356E-03 3.370E-03

     total cpu time spent up to now is     1628.6 secs

     total energy              =   -2585.45811321 Ry
     Harris-Foulkes estimate   =   -2585.45819433 Ry
     estimated scf accuracy    <       0.00023073 Ry

     total magnetization       =     0.00 Bohr mag/cell
     absolute magnetization    =     0.28 Bohr mag/cell

     iteration # 11     ecut=    55.00 Ry     beta=0.30
     Davidson diagonalization with overlap
     ethr =  3.56E-08,  avg # of iterations =  3.8

     negative rho (up, down):  3.372E-03 3.382E-03

     total cpu time spent up to now is     1781.5 secs

     total energy              =   -2585.45821707 Ry
     Harris-Foulkes estimate   =   -2585.45822253 Ry
     estimated scf accuracy    <       0.00002262 Ry

     total magnetization       =     0.00 Bohr mag/cell
     absolute magnetization    =     0.05 Bohr mag/cell

     iteration # 12     ecut=    55.00 Ry     beta=0.30
     Davidson diagonalization with overlap
     ethr =  3.49E-09,  avg # of iterations =  3.0

     negative rho (up, down):  3.383E-03 3.391E-03

     total cpu time spent up to now is     1900.2 secs

     total energy              =   -2585.45822322 Ry
     Harris-Foulkes estimate   =   -2585.45822299 Ry
     estimated scf accuracy    <       0.00000306 Ry

     total magnetization       =    -0.00 Bohr mag/cell
     absolute magnetization    =     0.02 Bohr mag/cell

     iteration # 13     ecut=    55.00 Ry     beta=0.30
     Davidson diagonalization with overlap
     ethr =  4.72E-10,  avg # of iterations =  3.0

     negative rho (up, down):  3.392E-03 3.398E-03

     total cpu time spent up to now is     1995.9 secs

     total energy              =   -2585.45822321 Ry
     Harris-Foulkes estimate   =   -2585.45822357 Ry
     estimated scf accuracy    <       0.00000188 Ry

     total magnetization       =    -0.00 Bohr mag/cell
     absolute magnetization    =     0.01 Bohr mag/cell

     iteration # 14     ecut=    55.00 Ry     beta=0.30
     Davidson diagonalization with overlap
     ethr =  2.90E-10,  avg # of iterations =  2.0

     negative rho (up, down):  3.399E-03 3.402E-03

     total cpu time spent up to now is     2084.5 secs

     total energy              =   -2585.45822308 Ry
     Harris-Foulkes estimate   =   -2585.45822335 Ry
     estimated scf accuracy    <       0.00000061 Ry

     total magnetization       =    -0.00 Bohr mag/cell
     absolute magnetization    =     0.01 Bohr mag/cell

     iteration # 15     ecut=    55.00 Ry     beta=0.30
     Davidson diagonalization with overlap
     ethr =  9.45E-11,  avg # of iterations =  3.5

     negative rho (up, down):  3.403E-03 3.406E-03

     total cpu time spent up to now is     2228.2 secs

     total energy              =   -2585.45822335 Ry
     Harris-Foulkes estimate   =   -2585.45822336 Ry
     estimated scf accuracy    <       0.00000003 Ry

     total magnetization       =     0.00 Bohr mag/cell
     absolute magnetization    =     0.00 Bohr mag/cell

     iteration # 16     ecut=    55.00 Ry     beta=0.30
     Davidson diagonalization with overlap
     ethr =  4.57E-12,  avg # of iterations =  3.5

     negative rho (up, down):  3.406E-03 3.408E-03

     total cpu time spent up to now is     2355.7 secs

     total energy              =   -2585.45822336 Ry
     Harris-Foulkes estimate   =   -2585.45822336 Ry
     estimated scf accuracy    <          3.5E-09 Ry

     total magnetization       =     0.00 Bohr mag/cell
     absolute magnetization    =     0.00 Bohr mag/cell

     iteration # 17     ecut=    55.00 Ry     beta=0.30
     Davidson diagonalization with overlap
     ethr =  5.44E-13,  avg # of iterations =  4.0

     negative rho (up, down):  3.414E-03 3.414E-03
 
     Magnetic moment per site:
     atom:    1    charge:    2.8348    magn:   -0.0000    constr:    0.0000
     atom:    2    charge:    0.8825    magn:   -0.0000    constr:    0.0000
     atom:    3    charge:    2.8348    magn:   -0.0000    constr:    0.0000
     atom:    4    charge:    0.8812    magn:   -0.0000    constr:    0.0000
     atom:    5    charge:    2.8684    magn:    0.0000    constr:    0.0000
     atom:    6    charge:    0.8816    magn:   -0.0000    constr:    0.0000
     atom:    7    charge:    2.8696    magn:    0.0000    constr:    0.0000
     atom:    8    charge:    0.8817    magn:   -0.0000    constr:    0.0000
     atom:    9    charge:    2.8698    magn:    0.0000    constr:    0.0000
     atom:   10    charge:    0.8817    magn:   -0.0000    constr:    0.0000
     atom:   11    charge:    2.8698    magn:    0.0000    constr:    0.0000
     atom:   12    charge:    0.8816    magn:   -0.0000    constr:    0.0000
     atom:   13    charge:    2.8698    magn:    0.0000    constr:    0.0000
     atom:   14    charge:    0.8812    magn:   -0.0000    constr:    0.0000
     atom:   15    charge:    2.8696    magn:    0.0000    constr:    0.0000
     atom:   16    charge:    0.8825    magn:   -0.0000    constr:    0.0000
     atom:   17    charge:    2.8684    magn:    0.0000    constr:    0.0000
     atom:   18    charge:    0.8825    magn:   -0.0000    constr:    0.0000
     atom:   19    charge:    2.8684    magn:    0.0000    constr:    0.0000
     atom:   20    charge:    0.8825    magn:   -0.0000    constr:    0.0000
     atom:   21    charge:    2.8672    magn:   -0.0000    constr:    0.0000
     atom:   22    charge:    0.8820    magn:   -0.0000    constr:    0.0000
     atom:   23    charge:    2.8684    magn:    0.0000    constr:    0.0000
     atom:   24    charge:    0.8817    magn:   -0.0000    constr:    0.0000
     atom:   25    charge:    2.8695    magn:    0.0000    constr:    0.0000
     atom:   26    charge:    0.8817    magn:   -0.0000    constr:    0.0000
     atom:   27    charge:    2.8697    magn:    0.0000    constr:    0.0000
     atom:   28    charge:    0.8817    magn:   -0.0000    constr:    0.0000
     atom:   29    charge:    2.8698    magn:    0.0000    constr:    0.0000
     atom:   30    charge:    0.8817    magn:   -0.0000    constr:    0.0000
     atom:   31    charge:    2.8698    magn:    0.0000    constr:    0.0000
     atom:   32    charge:    0.8817    magn:   -0.0000    constr:    0.0000
     atom:   33    charge:    2.8697    magn:    0.0000    constr:    0.0000
     atom:   34    charge:    0.8820    magn:   -0.0000    constr:    0.0000
     atom:   35    charge:    2.8695    magn:    0.0000    constr:    0.0000
     atom:   36    charge:    0.8812    magn:   -0.0000    constr:    0.0000
     atom:   37    charge:    2.8696    magn:    0.0000    constr:    0.0000
     atom:   38    charge:    0.8814    magn:   -0.0000    constr:    0.0000
     atom:   39    charge:    2.8692    magn:    0.0000    constr:    0.0000
     atom:   40    charge:    0.8812    magn:   -0.0000    constr:    0.0000
     atom:   41    charge:    2.8692    magn:    0.0000    constr:    0.0000
     atom:   42    charge:    0.8817    magn:   -0.0000    constr:    0.0000
     atom:   43    charge:    2.8696    magn:    0.0000    constr:    0.0000
     atom:   44    charge:    0.8817    magn:   -0.0000    constr:    0.0000
     atom:   45    charge:    2.8697    magn:    0.0000    constr:    0.0000
     atom:   46    charge:    0.8817    magn:   -0.0000    constr:    0.0000
     atom:   47    charge:    2.8698    magn:    0.0000    constr:    0.0000
     atom:   48    charge:    0.8817    magn:   -0.0000    constr:    0.0000
     atom:   49    charge:    2.8698    magn:    0.0000    constr:    0.0000
     atom:   50    charge:    0.8817    magn:   -0.0000    constr:    0.0000
     atom:   51    charge:    2.8698    magn:    0.0000    constr:    0.0000
     atom:   52    charge:    0.8817    magn:   -0.0000    constr:    0.0000
     atom:   53    charge:    2.8697    magn:    0.0000    constr:    0.0000
     atom:   54    charge:    0.8816    magn:   -0.0000    constr:    0.0000
     atom:   55    charge:    2.8698    magn:    0.0000    constr:    0.0000
     atom:   56    charge:    0.8816    magn:   -0.0000    constr:    0.0000
     atom:   57    charge:    2.8697    magn:    0.0000    constr:    0.0000
     atom:   58    charge:    0.8816    magn:   -0.0000    constr:    0.0000
     atom:   59    charge:    2.8695    magn:    0.0000    constr:    0.0000
     atom:   60    charge:    0.8816    magn:   -0.0000    constr:    0.0000
     atom:   61    charge:    2.8697    magn:    0.0000    constr:    0.0000
     atom:   62    charge:    0.8817    magn:   -0.0000    constr:    0.0000
     atom:   63    charge:    2.8698    magn:    0.0000    constr:    0.0000
     atom:   64    charge:    0.8817    magn:   -0.0000    constr:    0.0000
     atom:   65    charge:    2.8698    magn:    0.0000    constr:    0.0000
     atom:   66    charge:    0.8818    magn:   -0.0000    constr:    0.0000
     atom:   67    charge:    2.8698    magn:    0.0000    constr:    0.0000
     atom:   68    charge:    0.8817    magn:   -0.0000    constr:    0.0000
     atom:   69    charge:    2.8698    magn:    0.0000    constr:    0.0000
     atom:   70    charge:    0.8817    magn:   -0.0000    constr:    0.0000
     atom:   71    charge:    2.8698    magn:    0.0000    constr:    0.0000
     atom:   72    charge:    0.8817    magn:   -0.0000    constr:    0.0000
     atom:   73    charge:    2.8698    magn:    0.0000    constr:    0.0000
     atom:   74    charge:    0.8817    magn:   -0.0000    constr:    0.0000
     atom:   75    charge:    2.8698    magn:    0.0000    constr:    0.0000
     atom:   76    charge:    0.8817    magn:   -0.0000    constr:    0.0000
     atom:   77    charge:    2.8697    magn:    0.0000    constr:    0.0000
     atom:   78    charge:    0.8817    magn:   -0.0000    constr:    0.0000
     atom:   79    charge:    2.8697    magn:    0.0000    constr:    0.0000
     atom:   80    charge:    0.8817    magn:   -0.0000    constr:    0.0000
     atom:   81    charge:    2.8698    magn:    0.0000    constr:    0.0000
     atom:   82    charge:    0.8817    magn:   -0.0000    constr:    0.0000
     atom:   83    charge:    2.8698    magn:    0.0000    constr:    0.0000
     atom:   84    charge:    0.8817    magn:   -0.0000    constr:    0.0000
     atom:   85    charge:    2.8698    magn:    0.0000    constr:    0.0000
     atom:   86    charge:    0.8817    magn:   -0.0000    constr:    0.0000
     atom:   87    charge:    2.8698    magn:    0.0000    constr:    0.0000
     atom:   88    charge:    0.8817    magn:   -0.0000    constr:    0.0000
     atom:   89    charge:    2.8698    magn:    0.0000    constr:    0.0000
     atom:   90    charge:    0.8817    magn:   -0.0000    constr:    0.0000
     atom:   91    charge:    2.8698    magn:    0.0000    constr:    0.0000
     atom:   92    charge:    0.8817    magn:   -0.0000    constr:    0.0000
     atom:   93    charge:    2.8698    magn:    0.0000    constr:    0.0000
     atom:   94    charge:    0.8817    magn:   -0.0000    constr:    0.0000
     atom:   95    charge:    2.8698    magn:    0.0000    constr:    0.0000
     atom:   96    charge:    0.8817    magn:   -0.0000    constr:    0.0000
     atom:   97    charge:    2.8697    magn:    0.0000    constr:    0.0000
     atom:   98    charge:    0.8817    magn:   -0.0000    constr:    0.0000
     atom:   99    charge:    2.8698    magn:    0.0000    constr:    0.0000
     atom:  100    charge:    0.8817    magn:   -0.0000    constr:    0.0000
     atom:  101    charge:    2.8698    magn:    0.0000    constr:    0.0000
     atom:  102    charge:    0.8817    magn:   -0.0000    constr:    0.0000
     atom:  103    charge:    2.8698    magn:    0.0000    constr:    0.0000
     atom:  104    charge:    0.8817    magn:   -0.0000    constr:    0.0000
     atom:  105    charge:    2.8697    magn:    0.0000    constr:    0.0000
     atom:  106    charge:    0.8817    magn:   -0.0000    constr:    0.0000
     atom:  107    charge:    2.8697    magn:    0.0000    constr:    0.0000
     atom:  108    charge:    0.8816    magn:   -0.0000    constr:    0.0000
     atom:  109    charge:    2.8696    magn:    0.0000    constr:    0.0000
     atom:  110    charge:    0.8817    magn:   -0.0000    constr:    0.0000
     atom:  111    charge:    2.8697    magn:    0.0000    constr:    0.0000
     atom:  112    charge:    0.8817    magn:   -0.0000    constr:    0.0000
     atom:  113    charge:    2.8697    magn:    0.0000    constr:    0.0000
     atom:  114    charge:    0.8817    magn:   -0.0000    constr:    0.0000
     atom:  115    charge:    2.8697    magn:    0.0000    constr:    0.0000
     atom:  116    charge:    0.8817    magn:   -0.0000    constr:    0.0000
     atom:  117    charge:    2.8697    magn:    0.0000    constr:    0.0000
     atom:  118    charge:    0.8817    magn:   -0.0000    constr:    0.0000
     atom:  119    charge:    2.8697    magn:    0.0000    constr:    0.0000
     atom:  120    charge:    0.8816    magn:   -0.0000    constr:    0.0000
     atom:  121    charge:    2.8697    magn:    0.0000    constr:    0.0000
     atom:  122    charge:    0.8817    magn:   -0.0000    constr:    0.0000
     atom:  123    charge:    2.8696    magn:    0.0000    constr:    0.0000
     atom:  124    charge:    0.8817    magn:   -0.0000    constr:    0.0000
     atom:  125    charge:    2.8695    magn:    0.0000    constr:    0.0000
     atom:  126    charge:    0.8812    magn:   -0.0000    constr:    0.0000
     atom:  127    charge:    2.8684    magn:    0.0000    constr:    0.0000
     atom:  128    charge:    0.8816    magn:   -0.0000    constr:    0.0000
     atom:  129    charge:    2.8692    magn:    0.0000    constr:    0.0000
     atom:  130    charge:    0.8817    magn:   -0.0000    constr:    0.0000
     atom:  131    charge:    2.8695    magn:    0.0000    constr:    0.0000
     atom:  132    charge:    0.8817    magn:   -0.0000    constr:    0.0000
     atom:  133    charge:    2.8697    magn:    0.0000    constr:    0.0000
     atom:  134    charge:    0.8817    magn:   -0.0000    constr:    0.0000
     atom:  135    charge:    2.8698    magn:    0.0000    constr:    0.0000
     atom:  136    charge:    0.8817    magn:   -0.0000    constr:    0.0000
     atom:  137    charge:    2.8697    magn:    0.0000    constr:    0.0000
     atom:  138    charge:    0.8816    magn:   -0.0000    constr:    0.0000
     atom:  139    charge:    2.8695    magn:    0.0000    constr:    0.0000
     atom:  140    charge:    0.8812    magn:   -0.0000    constr:    0.0000
     atom:  141    charge:    2.8692    magn:    0.0000    constr:    0.0000
     atom:  142    charge:    0.8820    magn:   -0.0000    constr:    0.0000
     atom:  143    charge:    2.8684    magn:    0.0000    constr:    0.0000
     atom:  144    charge:    0.8825    magn:   -0.0000    constr:    0.0000
     atom:  145    charge:    2.8348    magn:   -0.0000    constr:    0.0000
     atom:  146    charge:    0.8814    magn:   -0.0000    constr:    0.0000
     atom:  147    charge:    2.8672    magn:   -0.0000    constr:    0.0000
     atom:  148    charge:    0.8816    magn:   -0.0000    constr:    0.0000
     atom:  149    charge:    2.8692    magn:    0.0000    constr:    0.0000
     atom:  150    charge:    0.8817    magn:   -0.0000    constr:    0.0000
     atom:  151    charge:    2.8697    magn:    0.0000    constr:    0.0000
     atom:  152    charge:    0.8817    magn:   -0.0000    constr:    0.0000
     atom:  153    charge:    2.8698    magn:    0.0000    constr:    0.0000
     atom:  154    charge:    0.8817    magn:   -0.0000    constr:    0.0000
     atom:  155    charge:    2.8698    magn:    0.0000    constr:    0.0000
     atom:  156    charge:    0.8816    magn:   -0.0000    constr:    0.0000
     atom:  157    charge:    2.8697    magn:    0.0000    constr:    0.0000
     atom:  158    charge:    0.8814    magn:   -0.0000    constr:    0.0000
     atom:  159    charge:    2.8692    magn:    0.0000    constr:    0.0000
     atom:  160    charge:    0.8825    magn:   -0.0000    constr:    0.0000
     atom:  161    charge:    2.8672    magn:   -0.0000    constr:    0.0000
     atom:  162    charge:    1.6101    magn:    0.0000    constr:    0.0000

     total cpu time spent up to now is     2478.2 secs

     End of self-consistent calculation

 ------ SPIN UP ------------


          k = 0.0000 0.0000 0.0000 (464165 PWs)   bands (ev):

   -25.0073 -22.9661 -22.9661 -22.4668 -22.1882 -22.1882 -22.1127 -22.1127
   -22.0603 -21.9765 -21.8131 -21.8131 -21.7304 -21.5768 -21.5768 -21.5508
   -21.4755 -21.4755 -21.4717 -21.3397 -21.3397 -21.2415 -21.0853 -21.0853
   -21.0393 -20.9039 -20.8212 -20.8212 -20.7647 -20.7647 -20.7247 -20.6807
   -20.6807 -20.5576 -20.4729 -20.4548 -20.4548 -20.3803 -20.3803 -20.2140
   -20.1646 -20.1646 -20.1308 -20.0188 -19.9495 -19.9495 -19.8420 -19.8035
   -19.8035 -19.7585 -19.7585 -19.7292 -19.6981 -19.6981 -19.6825 -19.5641
   -19.5641 -19.5392 -19.5313 -19.5313 -19.3511 -19.3502 -19.3502 -19.2869
   -19.2804 -19.2804 -19.2542 -19.0962 -19.0962 -19.0585 -19.0496 -19.0460
   -19.0460 -18.9311 -18.9295 -18.9292 -18.9292 -18.8784 -18.8784 -18.6501
   -18.6501 -16.4968 -14.7853 -14.7853 -13.8335 -13.8335 -13.7985 -13.5215
   -13.5215 -13.3839 -13.3692 -13.3692 -13.3351 -13.2683 -13.2683 -13.2614
   -13.1892 -13.1112 -13.1112 -12.9133 -12.9133 -12.8350 -12.8341 -12.8341
   -12.8178 -12.7192 -12.6778 -12.6778 -12.6533 -12.6533 -12.5772 -12.5757
   -12.5757 -12.5580 -12.5305 -12.5305 -12.5149 -12.5149 -12.5120 -12.1816
   -12.1758 -12.0776 -12.0776 -11.8973 -11.8862 -11.8862 -11.8440 -11.7412
   -11.7412 -11.7122 -11.6891 -11.6891 -11.6750 -11.5436 -11.5148 -11.5148
   -11.4560 -11.3261 -11.0131 -11.0131 -10.9320 -10.9320 -10.8474 -10.8474
   -10.8134 -10.7556 -10.7556 -10.7289 -10.7289 -10.7217 -10.7140 -10.6710
   -10.5208 -10.5045 -10.5045 -10.4773 -10.4773 -10.4632 -10.3417 -10.3417
   -10.3248 -10.1126 -10.1126 -10.1085 -10.0709 -10.0709  -9.9757  -9.9757
    -9.9226  -9.8921  -9.6494  -9.6405  -9.6405  -9.6086  -9.6086  -9.5937
    -9.5937  -9.4813  -9.4610  -9.4526  -9.4488  -9.4488  -9.4281  -9.3596
    -9.3596  -9.3417  -9.3194  -9.3194  -9.3085  -9.3085  -9.3053  -9.2833
    -9.2792  -9.2792  -9.2363  -9.2363  -9.2301  -9.1207  -9.1207  -9.0389
    -8.9387  -8.9387  -8.9010  -8.8740  -8.8740  -8.8592  -8.7829  -8.7829
    -8.7717  -8.7449  -8.7449  -8.7274  -8.7254  -8.7119  -8.7119  -8.7017
    -8.7017  -8.6517  -8.6492  -8.5724  -8.5724  -8.5696  -8.5696  -8.5453
    -8.4355  -8.4355  -8.4308  -8.4270  -8.4270  -8.4014  -8.3496  -8.3178
    -8.3178  -8.2708  -8.2618  -8.2618  -8.2484  -8.2484  -8.2420  -8.0848
    -8.0848  -8.0376  -7.8933  -7.8933  -7.8525  -7.8108  -7.8108  -7.7584
    -7.7584  -7.7553  -7.7370  -7.6192  -7.6192  -7.4781  -7.4766  -7.4766
    -7.4447  -7.4412  -7.3726  -7.3726  -7.3561  -7.3561  -7.3440  -7.3384
    -7.3384  -7.2806  -7.2395  -7.2395  -7.1882  -7.0653  -7.0653  -7.0360
    -7.0360  -6.9402  -6.9384  -6.7604  -6.7454  -6.7454  -6.6181  -6.6181
    -6.6178  -6.5607  -6.5417  -6.5417  -6.4728  -6.4728  -6.4427  -6.3926
    -6.3862  -6.3862  -6.3477  -6.3477  -6.3433  -6.2918  -6.2918  -6.2854
    -6.0604  -6.0604  -6.0356  -6.0356  -6.0277  -5.8648  -5.8648  -5.7956
    -5.7931  -5.7931  -5.5891  -5.5733  -5.5579  -5.5579  -5.3662  -5.3662
    -5.3109  -5.3099  -5.2963  -5.2963  -5.1654  -5.1654  -5.1532  -5.1523
    -5.1034  -5.1034  -4.6963  -4.6963  -3.0148  -0.6938  -0.5290  -0.5290
    -0.2767  -0.1749  -0.1223  -0.1223   0.0384   0.1902   0.1902   0.2081
     0.2081   0.2557   0.3038   0.3278   0.3278   0.3391   0.3652   0.3797
     0.3797   0.3892   0.3892   0.4118   0.4425   0.4425   0.4679   0.4679
     0.4921   0.5115   0.5767   0.5767   0.6593   0.7998   0.8972   1.0250
     1.0250   1.0847   1.1097   1.1097   1.1535   1.1597   1.1597   1.1886
     1.2149   1.2149   1.2414   1.2414   1.2461   1.2461   1.2492   1.2925
     1.2934   1.3226   1.3226   1.5002   1.5005   1.5405   1.5617   1.5937
     1.6447   1.6478   1.6710   1.7157   1.7158

     occupation numbers 
     1.0000   1.0000   1.0000   1.0000   1.0000   1.0000   1.0000   1.0000
     1.0000   1.0000   1.0000   1.0000   1.0000   1.0000   1.0000   1.0000
     1.0000   1.0000   1.0000   1.0000   1.0000   1.0000   1.0000   1.0000
     1.0000   1.0000   1.0000   1.0000   1.0000   1.0000   1.0000   1.0000
     1.0000   1.0000   1.0000   1.0000   1.0000   1.0000   1.0000   1.0000
     1.0000   1.0000   1.0000   1.0000   1.0000   1.0000   1.0000   1.0000
     1.0000   1.0000   1.0000   1.0000   1.0000   1.0000   1.0000   1.0000
     1.0000   1.0000   1.0000   1.0000   1.0000   1.0000   1.0000   1.0000
     1.0000   1.0000   1.0000   1.0000   1.0000   1.0000   1.0000   1.0000
     1.0000   1.0000   1.0000   1.0000   1.0000   1.0000   1.0000   1.0000
     1.0000   1.0000   1.0000   1.0000   1.0000   1.0000   1.0000   1.0000
     1.0000   1.0000   1.0000   1.0000   1.0000   1.0000   1.0000   1.0000
     1.0000   1.0000   1.0000   1.0000   1.0000   1.0000   1.0000   1.0000
     1.0000   1.0000   1.0000   1.0000   1.0000   1.0000   1.0000   1.0000
     1.0000   1.0000   1.0000   1.0000   1.0000   1.0000   1.0000   1.0000
     1.0000   1.0000   1.0000   1.0000   1.0000   1.0000   1.0000   1.0000
     1.0000   1.0000   1.0000   1.0000   1.0000   1.0000   1.0000   1.0000
     1.0000   1.0000   1.0000   1.0000   1.0000   1.0000   1.0000   1.0000
     1.0000   1.0000   1.0000   1.0000   1.0000   1.0000   1.0000   1.0000
     1.0000   1.0000   1.0000   1.0000   1.0000   1.0000   1.0000   1.0000
     1.0000   1.0000   1.0000   1.0000   1.0000   1.0000   1.0000   1.0000
     1.0000   1.0000   1.0000   1.0000   1.0000   1.0000   1.0000   1.0000
     1.0000   1.0000   1.0000   1.0000   1.0000   1.0000   1.0000   1.0000
     1.0000   1.0000   1.0000   1.0000   1.0000   1.0000   1.0000   1.0000
     1.0000   1.0000   1.0000   1.0000   1.0000   1.0000   1.0000   1.0000
     1.0000   1.0000   1.0000   1.0000   1.0000   1.0000   1.0000   1.0000
     1.0000   1.0000   1.0000   1.0000   1.0000   1.0000   1.0000   1.0000
     1.0000   1.0000   1.0000   1.0000   1.0000   1.0000   1.0000   1.0000
     1.0000   1.0000   1.0000   1.0000   1.0000   1.0000   1.0000   1.0000
     1.0000   1.0000   1.0000   1.0000   1.0000   1.0000   1.0000   1.0000
     1.0000   1.0000   1.0000   1.0000   1.0000   1.0000   1.0000   1.0000
     1.0000   1.0000   1.0000   1.0000   1.0000   1.0000   1.0000   1.0000
     1.0000   1.0000   1.0000   1.0000   1.0000   1.0000   1.0000   1.0000
     1.0000   1.0000   1.0000   1.0000   1.0000   1.0000   1.0000   1.0000
     1.0000   1.0000   1.0000   1.0000   1.0000   1.0000   1.0000   1.0000
     1.0000   1.0000   1.0000   1.0000   1.0000   1.0000   1.0000   1.0000
     1.0000   1.0000   1.0000   1.0000   1.0000   1.0000   1.0000   1.0000
     1.0000   1.0000   1.0000   1.0000   1.0000   1.0000   1.0000   1.0000
     1.0000   1.0000   1.0000   1.0000   1.0000   1.0000   1.0000   1.0000
     1.0000   1.0000   1.0000   1.0000   1.0000   1.0000   1.0000   1.0000
     1.0000   1.0000   1.0000   1.0000   0.0000   0.0000   0.0000   0.0000
     0.0000   0.0000   0.0000   0.0000   0.0000   0.0000   0.0000   0.0000
     0.0000   0.0000   0.0000   0.0000   0.0000   0.0000   0.0000   0.0000
     0.0000   0.0000   0.0000   0.0000   0.0000   0.0000   0.0000   0.0000
     0.0000   0.0000   0.0000   0.0000   0.0000   0.0000   0.0000   0.0000
     0.0000   0.0000   0.0000   0.0000   0.0000   0.0000   0.0000   0.0000
     0.0000   0.0000   0.0000   0.0000   0.0000   0.0000   0.0000   0.0000
     0.0000   0.0000   0.0000   0.0000   0.0000   0.0000   0.0000   0.0000
     0.0000   0.0000   0.0000   0.0000   0.0000

          k = 0.0000-0.5774 0.0000 (463790 PWs)   bands (ev):

   -25.0073 -22.9663 -22.9661 -22.4563 -22.2336 -22.1887 -22.1609 -22.0977
   -21.9513 -21.8939 -21.8772 -21.8031 -21.7896 -21.6523 -21.6197 -21.5691
   -21.5372 -21.4433 -21.3263 -21.3030 -21.2238 -21.1625 -21.1600 -21.1074
   -21.1056 -20.9950 -20.9011 -20.8836 -20.7928 -20.7341 -20.7046 -20.6451
   -20.6127 -20.5917 -20.4377 -20.4205 -20.3674 -20.3063 -20.2789 -20.2617
   -20.1814 -20.1520 -20.1288 -20.1217 -20.0638 -19.9314 -19.9002 -19.8957
   -19.8930 -19.8586 -19.7511 -19.7191 -19.6377 -19.6350 -19.5926 -19.5785
   -19.5617 -19.5154 -19.3976 -19.3969 -19.3736 -19.3263 -19.2863 -19.2785
   -19.2584 -19.2465 -19.2161 -19.2112 -19.1821 -19.1801 -19.1636 -19.0669
   -19.0599 -18.9740 -18.9740 -18.9140 -18.9137 -18.7388 -18.7388 -18.6949
   -18.6945 -16.4968 -14.7855 -14.7853 -13.8414 -13.8335 -13.7717 -13.5312
   -13.5072 -13.4833 -13.4072 -13.3776 -13.3126 -13.2671 -13.1479 -13.1471
   -13.1026 -13.0592 -13.0375 -13.0187 -13.0047 -12.9590 -12.9261 -12.9092
   -12.8766 -12.8273 -12.7237 -12.7048 -12.6965 -12.6777 -12.6619 -12.6480
   -12.4854 -12.4695 -12.4490 -12.4320 -12.3540 -12.3429 -12.2572 -12.2376
   -12.1582 -12.1577 -12.0721 -12.0490 -11.9688 -11.9463 -11.9216 -11.8291
   -11.7550 -11.6553 -11.6387 -11.6348 -11.5436 -11.4622 -11.3251 -11.3044
   -11.2857 -11.2518 -11.2321 -11.1831 -11.1664 -11.1429 -11.1120 -11.0892
   -11.0886 -10.9453 -10.8635 -10.7135 -10.7035 -10.5822 -10.5734 -10.5557
   -10.5287 -10.4155 -10.4013 -10.3496 -10.3201 -10.2325 -10.1591 -10.0932
   -10.0821 -10.0735 -10.0656 -10.0572 -10.0416 -10.0236  -9.9939  -9.9914
    -9.9234  -9.9132  -9.8411  -9.7612  -9.7133  -9.6698  -9.6297  -9.6264
    -9.6258  -9.6141  -9.6034  -9.5407  -9.5044  -9.5018  -9.4713  -9.4597
    -9.4488  -9.4437  -9.4213  -9.3506  -9.3436  -9.3311  -9.2653  -9.2100
    -9.1925  -9.1854  -9.1254  -9.0965  -9.0778  -9.0619  -9.0035  -8.9785
    -8.9597  -8.9516  -8.9400  -8.9364  -8.9347  -8.9017  -8.8976  -8.8889
    -8.8855  -8.8501  -8.8221  -8.8092  -8.7795  -8.6961  -8.6815  -8.6772
    -8.6655  -8.6588  -8.6260  -8.6087  -8.6078  -8.5905  -8.5569  -8.4492
    -8.4065  -8.3958  -8.3820  -8.3522  -8.3509  -8.3263  -8.3225  -8.3100
    -8.2615  -8.2593  -8.2330  -8.1707  -8.1610  -8.1425  -8.0763  -8.0356
    -8.0226  -7.9438  -7.9115  -7.9053  -7.8484  -7.8372  -7.8212  -7.7813
    -7.7688  -7.7685  -7.7124  -7.7086  -7.6989  -7.6679  -7.6506  -7.6369
    -7.5089  -7.5088  -7.4820  -7.4746  -7.4267  -7.3854  -7.3275  -7.1918
    -7.1757  -7.1546  -7.1286  -7.0728  -7.0715  -7.0469  -7.0431  -7.0310
    -6.9591  -6.9192  -6.9042  -6.8890  -6.8245  -6.8169  -6.8051  -6.7437
    -6.7417  -6.7275  -6.6438  -6.5516  -6.5107  -6.4972  -6.4352  -6.3761
    -6.3585  -6.2947  -6.2808  -6.2647  -6.2562  -6.2256  -6.1325  -6.1308
    -6.1125  -6.0564  -6.0530  -5.9865  -5.9070  -5.8151  -5.7988  -5.7622
    -5.7235  -5.6498  -5.6340  -5.5993  -5.5975  -5.5756  -5.5689  -5.5341
    -5.5263  -5.5145  -5.3239  -5.3208  -5.1756  -5.1742  -5.1180  -5.1134
    -4.8509  -4.8509  -4.7834  -4.7814  -3.0153  -0.6968  -0.5300  -0.5294
    -0.2716  -0.1716  -0.1261  -0.1161   0.0816   0.0887   0.1477   0.1874
     0.2022   0.2191   0.2255   0.2580   0.2771   0.3033   0.3538   0.3668
     0.3747   0.4295   0.4521   0.4576   0.4673   0.5798   0.6192   0.6432
     0.6686   0.6735   0.6774   0.7393   0.7471   0.7737   0.7744   0.7833
     0.7908   0.8566   0.9669   0.9777   0.9894   0.9914   1.0257   1.0293
     1.1769   1.1822   1.2102   1.2119   1.2313   1.2805   1.3238   1.3748
     1.3816   1.4464   1.4479   1.5808   1.5915   1.5933   1.6512   1.6553
     1.6652   1.6691   1.6768   1.6993   1.7190

     occupation numbers 
     1.0000   1.0000   1.0000   1.0000   1.0000   1.0000   1.0000   1.0000
     1.0000   1.0000   1.0000   1.0000   1.0000   1.0000   1.0000   1.0000
     1.0000   1.0000   1.0000   1.0000   1.0000   1.0000   1.0000   1.0000
     1.0000   1.0000   1.0000   1.0000   1.0000   1.0000   1.0000   1.0000
     1.0000   1.0000   1.0000   1.0000   1.0000   1.0000   1.0000   1.0000
     1.0000   1.0000   1.0000   1.0000   1.0000   1.0000   1.0000   1.0000
     1.0000   1.0000   1.0000   1.0000   1.0000   1.0000   1.0000   1.0000
     1.0000   1.0000   1.0000   1.0000   1.0000   1.0000   1.0000   1.0000
     1.0000   1.0000   1.0000   1.0000   1.0000   1.0000   1.0000   1.0000
     1.0000   1.0000   1.0000   1.0000   1.0000   1.0000   1.0000   1.0000
     1.0000   1.0000   1.0000   1.0000   1.0000   1.0000   1.0000   1.0000
     1.0000   1.0000   1.0000   1.0000   1.0000   1.0000   1.0000   1.0000
     1.0000   1.0000   1.0000   1.0000   1.0000   1.0000   1.0000   1.0000
     1.0000   1.0000   1.0000   1.0000   1.0000   1.0000   1.0000   1.0000
     1.0000   1.0000   1.0000   1.0000   1.0000   1.0000   1.0000   1.0000
     1.0000   1.0000   1.0000   1.0000   1.0000   1.0000   1.0000   1.0000
     1.0000   1.0000   1.0000   1.0000   1.0000   1.0000   1.0000   1.0000
     1.0000   1.0000   1.0000   1.0000   1.0000   1.0000   1.0000   1.0000
     1.0000   1.0000   1.0000   1.0000   1.0000   1.0000   1.0000   1.0000
     1.0000   1.0000   1.0000   1.0000   1.0000   1.0000   1.0000   1.0000
     1.0000   1.0000   1.0000   1.0000   1.0000   1.0000   1.0000   1.0000
     1.0000   1.0000   1.0000   1.0000   1.0000   1.0000   1.0000   1.0000
     1.0000   1.0000   1.0000   1.0000   1.0000   1.0000   1.0000   1.0000
     1.0000   1.0000   1.0000   1.0000   1.0000   1.0000   1.0000   1.0000
     1.0000   1.0000   1.0000   1.0000   1.0000   1.0000   1.0000   1.0000
     1.0000   1.0000   1.0000   1.0000   1.0000   1.0000   1.0000   1.0000
     1.0000   1.0000   1.0000   1.0000   1.0000   1.0000   1.0000   1.0000
     1.0000   1.0000   1.0000   1.0000   1.0000   1.0000   1.0000   1.0000
     1.0000   1.0000   1.0000   1.0000   1.0000   1.0000   1.0000   1.0000
     1.0000   1.0000   1.0000   1.0000   1.0000   1.0000   1.0000   1.0000
     1.0000   1.0000   1.0000   1.0000   1.0000   1.0000   1.0000   1.0000
     1.0000   1.0000   1.0000   1.0000   1.0000   1.0000   1.0000   1.0000
     1.0000   1.0000   1.0000   1.0000   1.0000   1.0000   1.0000   1.0000
     1.0000   1.0000   1.0000   1.0000   1.0000   1.0000   1.0000   1.0000
     1.0000   1.0000   1.0000   1.0000   1.0000   1.0000   1.0000   1.0000
     1.0000   1.0000   1.0000   1.0000   1.0000   1.0000   1.0000   1.0000
     1.0000   1.0000   1.0000   1.0000   1.0000   1.0000   1.0000   1.0000
     1.0000   1.0000   1.0000   1.0000   1.0000   1.0000   1.0000   1.0000
     1.0000   1.0000   1.0000   1.0000   1.0000   1.0000   1.0000   1.0000
     1.0000   1.0000   1.0000   1.0000   1.0000   1.0000   1.0000   1.0000
     1.0000   1.0000   1.0000   1.0000   0.0000   0.0000   0.0000   0.0000
     0.0000   0.0000   0.0000   0.0000   0.0000   0.0000   0.0000   0.0000
     0.0000   0.0000   0.0000   0.0000   0.0000   0.0000   0.0000   0.0000
     0.0000   0.0000   0.0000   0.0000   0.0000   0.0000   0.0000   0.0000
     0.0000   0.0000   0.0000   0.0000   0.0000   0.0000   0.0000   0.0000
     0.0000   0.0000   0.0000   0.0000   0.0000   0.0000   0.0000   0.0000
     0.0000   0.0000   0.0000   0.0000   0.0000   0.0000   0.0000   0.0000
     0.0000   0.0000   0.0000   0.0000   0.0000   0.0000   0.0000   0.0000
     0.0000   0.0000   0.0000   0.0000   0.0000

 ------ SPIN DOWN ----------


          k = 0.0000 0.0000 0.0000 (464165 PWs)   bands (ev):

   -25.0073 -22.9661 -22.9661 -22.4668 -22.1882 -22.1882 -22.1127 -22.1127
   -22.0603 -21.9765 -21.8131 -21.8131 -21.7304 -21.5768 -21.5768 -21.5508
   -21.4755 -21.4755 -21.4717 -21.3397 -21.3397 -21.2415 -21.0853 -21.0853
   -21.0393 -20.9039 -20.8212 -20.8212 -20.7647 -20.7647 -20.7247 -20.6807
   -20.6807 -20.5576 -20.4729 -20.4548 -20.4548 -20.3803 -20.3803 -20.2140
   -20.1646 -20.1646 -20.1308 -20.0188 -19.9495 -19.9495 -19.8420 -19.8035
   -19.8035 -19.7585 -19.7585 -19.7292 -19.6981 -19.6981 -19.6825 -19.5641
   -19.5641 -19.5392 -19.5313 -19.5313 -19.3511 -19.3502 -19.3502 -19.2869
   -19.2804 -19.2804 -19.2542 -19.0962 -19.0962 -19.0585 -19.0495 -19.0460
   -19.0460 -18.9311 -18.9295 -18.9292 -18.9292 -18.8784 -18.8784 -18.6501
   -18.6501 -16.4968 -14.7853 -14.7853 -13.8335 -13.8335 -13.7985 -13.5215
   -13.5215 -13.3839 -13.3692 -13.3692 -13.3351 -13.2683 -13.2683 -13.2614
   -13.1892 -13.1112 -13.1112 -12.9133 -12.9133 -12.8350 -12.8341 -12.8341
   -12.8178 -12.7192 -12.6778 -12.6778 -12.6533 -12.6533 -12.5772 -12.5757
   -12.5757 -12.5580 -12.5305 -12.5305 -12.5149 -12.5149 -12.5120 -12.1816
   -12.1758 -12.0776 -12.0776 -11.8973 -11.8862 -11.8862 -11.8440 -11.7412
   -11.7412 -11.7122 -11.6891 -11.6891 -11.6750 -11.5435 -11.5149 -11.5149
   -11.4560 -11.3261 -11.0131 -11.0131 -10.9320 -10.9320 -10.8474 -10.8474
   -10.8134 -10.7556 -10.7556 -10.7289 -10.7289 -10.7217 -10.7140 -10.6710
   -10.5208 -10.5045 -10.5045 -10.4773 -10.4773 -10.4632 -10.3417 -10.3417
   -10.3248 -10.1126 -10.1126 -10.1085 -10.0710 -10.0710  -9.9757  -9.9757
    -9.9226  -9.8921  -9.6494  -9.6405  -9.6405  -9.6086  -9.6086  -9.5937
    -9.5937  -9.4813  -9.4610  -9.4526  -9.4488  -9.4488  -9.4281  -9.3596
    -9.3596  -9.3417  -9.3194  -9.3194  -9.3085  -9.3085  -9.3052  -9.2833
    -9.2792  -9.2792  -9.2363  -9.2363  -9.2301  -9.1207  -9.1207  -9.0389
    -8.9387  -8.9387  -8.9010  -8.8740  -8.8740  -8.8592  -8.7829  -8.7829
    -8.7717  -8.7449  -8.7449  -8.7274  -8.7254  -8.7119  -8.7119  -8.7017
    -8.7017  -8.6517  -8.6492  -8.5724  -8.5724  -8.5696  -8.5696  -8.5453
    -8.4355  -8.4355  -8.4308  -8.4270  -8.4270  -8.4014  -8.3496  -8.3178
    -8.3178  -8.2708  -8.2618  -8.2618  -8.2484  -8.2484  -8.2420  -8.0848
    -8.0848  -8.0376  -7.8933  -7.8933  -7.8525  -7.8108  -7.8108  -7.7584
    -7.7584  -7.7553  -7.7370  -7.6192  -7.6192  -7.4781  -7.4766  -7.4766
    -7.4447  -7.4412  -7.3726  -7.3726  -7.3561  -7.3561  -7.3440  -7.3384
    -7.3384  -7.2806  -7.2395  -7.2395  -7.1882  -7.0653  -7.0653  -7.0360
    -7.0360  -6.9402  -6.9383  -6.7604  -6.7454  -6.7454  -6.6181  -6.6181
    -6.6178  -6.5607  -6.5417  -6.5417  -6.4728  -6.4728  -6.4427  -6.3926
    -6.3862  -6.3862  -6.3477  -6.3477  -6.3432  -6.2918  -6.2918  -6.2854
    -6.0604  -6.0604  -6.0356  -6.0356  -6.0277  -5.8648  -5.8648  -5.7955
    -5.7931  -5.7931  -5.5891  -5.5733  -5.5579  -5.5579  -5.3662  -5.3662
    -5.3108  -5.3099  -5.2963  -5.2963  -5.1654  -5.1654  -5.1532  -5.1523
    -5.1034  -5.1034  -4.6963  -4.6963  -3.0145  -0.6938  -0.5291  -0.5291
    -0.2766  -0.1749  -0.1224  -0.1224   0.0384   0.1902   0.1902   0.2081
     0.2081   0.2556   0.3038   0.3278   0.3278   0.3392   0.3652   0.3797
     0.3797   0.3892   0.3892   0.4118   0.4425   0.4425   0.4679   0.4679
     0.4921   0.5114   0.5767   0.5767   0.6593   0.7998   0.8972   1.0250
     1.0250   1.0847   1.1097   1.1097   1.1535   1.1597   1.1597   1.1886
     1.2149   1.2149   1.2414   1.2414   1.2461   1.2461   1.2492   1.2925
     1.2934   1.3226   1.3226   1.5001   1.5002   1.5403   1.5616   1.5937
     1.6459   1.6492   1.6673   1.6710   1.7156

     occupation numbers 
     1.0000   1.0000   1.0000   1.0000   1.0000   1.0000   1.0000   1.0000
     1.0000   1.0000   1.0000   1.0000   1.0000   1.0000   1.0000   1.0000
     1.0000   1.0000   1.0000   1.0000   1.0000   1.0000   1.0000   1.0000
     1.0000   1.0000   1.0000   1.0000   1.0000   1.0000   1.0000   1.0000
     1.0000   1.0000   1.0000   1.0000   1.0000   1.0000   1.0000   1.0000
     1.0000   1.0000   1.0000   1.0000   1.0000   1.0000   1.0000   1.0000
     1.0000   1.0000   1.0000   1.0000   1.0000   1.0000   1.0000   1.0000
     1.0000   1.0000   1.0000   1.0000   1.0000   1.0000   1.0000   1.0000
     1.0000   1.0000   1.0000   1.0000   1.0000   1.0000   1.0000   1.0000
     1.0000   1.0000   1.0000   1.0000   1.0000   1.0000   1.0000   1.0000
     1.0000   1.0000   1.0000   1.0000   1.0000   1.0000   1.0000   1.0000
     1.0000   1.0000   1.0000   1.0000   1.0000   1.0000   1.0000   1.0000
     1.0000   1.0000   1.0000   1.0000   1.0000   1.0000   1.0000   1.0000
     1.0000   1.0000   1.0000   1.0000   1.0000   1.0000   1.0000   1.0000
     1.0000   1.0000   1.0000   1.0000   1.0000   1.0000   1.0000   1.0000
[...]
     atom   86 type  1   force =    -0.00000016   -0.00000014    0.00000000
     atom   87 type  3   force =    -0.00000042   -0.00000024   -0.00000000
     atom   88 type  1   force =    -0.00000000   -0.00000009   -0.00000000
     atom   89 type  3   force =    -0.00000038   -0.00000014    0.00000000
     atom   90 type  1   force =    -0.00000008   -0.00000002   -0.00000000
     atom   91 type  3   force =    -0.00000028    0.00000004   -0.00000000
     atom   92 type  1   force =    -0.00000000   -0.00000008    0.00000000
     atom   93 type  3   force =    -0.00000024    0.00000004    0.00000000
     atom   94 type  1   force =    -0.00000006   -0.00000001    0.00000000
     atom   95 type  3   force =    -0.00000000    0.00000017    0.00000000
     atom   96 type  1   force =    -0.00000004   -0.00000004    0.00000000
     atom   97 type  3   force =    -0.00000007   -0.00000004    0.00000000
     atom   98 type  1   force =    -0.00000007    0.00000004    0.00000000
     atom   99 type  3   force =     0.00000015   -0.00000009    0.00000000
     atom  100 type  1   force =    -0.00000006   -0.00000006   -0.00000000
     atom  101 type  3   force =    -0.00000008   -0.00000023    0.00000000
     atom  102 type  1   force =    -0.00000007   -0.00000007   -0.00000000
     atom  103 type  3   force =    -0.00000010   -0.00000027   -0.00000000
     atom  104 type  1   force =    -0.00000009   -0.00000005    0.00000000
     atom  105 type  3   force =    -0.00000014   -0.00000018    0.00000000
     atom  106 type  1   force =    -0.00000009   -0.00000002   -0.00000000
     atom  107 type  3   force =    -0.00000022   -0.00000003    0.00000000
     atom  108 type  1   force =     0.00000002   -0.00000000   -0.00000000
     atom  109 type  3   force =     0.00000004   -0.00000009    0.00000000
     atom  110 type  1   force =    -0.00000010    0.00000005   -0.00000000
     atom  111 type  3   force =     0.00000007   -0.00000021    0.00000000
     atom  112 type  1   force =     0.00000006   -0.00000001    0.00000000
     atom  113 type  3   force =    -0.00000020    0.00000025   -0.00000000
     atom  114 type  1   force =     0.00000000    0.00000000    0.00000000
     atom  115 type  3   force =     0.00000007   -0.00000004    0.00000000
     atom  116 type  1   force =     0.00000002    0.00000005    0.00000000
     atom  117 type  3   force =     0.00000000    0.00000008    0.00000000
     atom  118 type  1   force =    -0.00000001   -0.00000011   -0.00000000
     atom  119 type  3   force =     0.00000012   -0.00000030   -0.00000000
     atom  120 type  1   force =     0.00000001    0.00000002   -0.00000000
     atom  121 type  3   force =    -0.00000015    0.00000017    0.00000000
     atom  122 type  1   force =     0.00000007    0.00000012    0.00000000
     atom  123 type  3   force =    -0.00000006    0.00000008    0.00000000
     atom  124 type  1   force =     0.00000014    0.00000000    0.00000000
     atom  125 type  3   force =    -0.00000011   -0.00000006    0.00000000
     atom  126 type  1   force =     0.00000002   -0.00000006    0.00000000
     atom  127 type  3   force =    -0.00000023   -0.00000033   -0.00000000
     atom  128 type  1   force =     0.00000000   -0.00000013    0.00000000
     atom  129 type  3   force =     0.00000006   -0.00000035    0.00000000
     atom  130 type  1   force =    -0.00000022    0.00000012    0.00000000
     atom  131 type  3   force =     0.00000011   -0.00000006   -0.00000000
     atom  132 type  1   force =     0.00000004   -0.00000004    0.00000000
     atom  133 type  3   force =    -0.00000032    0.00000005   -0.00000000
     atom  134 type  1   force =    -0.00000002    0.00000005    0.00000000
     atom  135 type  3   force =    -0.00000015   -0.00000009    0.00000000
     atom  136 type  1   force =    -0.00000000   -0.00000025    0.00000000
     atom  137 type  3   force =    -0.00000012   -0.00000030   -0.00000000
     atom  138 type  1   force =    -0.00000011    0.00000006    0.00000000
     atom  139 type  3   force =    -0.00000000    0.00000013   -0.00000000
     atom  140 type  1   force =    -0.00000005    0.00000005    0.00000000
     atom  141 type  3   force =    -0.00000027    0.00000023    0.00000000
     atom  142 type  1   force =    -0.00000004   -0.00000002   -0.00000000
     atom  143 type  3   force =    -0.00000040   -0.00000004   -0.00000000
     atom  144 type  1   force =    -0.00000005   -0.00000011    0.00000000
     atom  145 type  3   force =    -0.00000000   -0.00000000    0.00000000
     atom  146 type  1   force =    -0.00000002    0.00000001    0.00000000
     atom  147 type  3   force =    -0.00000011    0.00000007   -0.00000000
     atom  148 type  1   force =     0.00000011    0.00000006    0.00000000
     atom  149 type  3   force =     0.00000034    0.00000012    0.00000000
     atom  150 type  1   force =    -0.00000009    0.00000006   -0.00000000
     atom  151 type  3   force =     0.00000022    0.00000005    0.00000000
     atom  152 type  1   force =     0.00000007    0.00000004    0.00000000
     atom  153 type  3   force =    -0.00000016    0.00000019    0.00000000
     atom  154 type  1   force =     0.00000001   -0.00000011   -0.00000000
     atom  155 type  3   force =     0.00000008   -0.00000023    0.00000000
     atom  156 type  1   force =     0.00000011    0.00000006    0.00000000
     atom  157 type  3   force =     0.00000015    0.00000017    0.00000000
     atom  158 type  1   force =    -0.00000000   -0.00000002    0.00000000
     atom  159 type  3   force =     0.00000027    0.00000023    0.00000000
     atom  160 type  1   force =    -0.00000012    0.00000002    0.00000000
     atom  161 type  3   force =    -0.00000000   -0.00000013   -0.00000000
     atom  162 type  2   force =    -0.00000000   -0.00000000   -0.00000000

     Total force =     0.005486     Total SCF correction =     0.000003


     Computing stress (Cartesian axis) and pressure


     negative rho (up, down):  3.427E-03 3.427E-03
          total   stress  (Ry/bohr**3)                   (kbar)     P=   -1.38
  -0.00001145   0.00000000   0.00000000         -1.68      0.00      0.00
   0.00000000  -0.00001145   0.00000000          0.00     -1.68      0.00
   0.00000000   0.00000000  -0.00000521          0.00      0.00     -0.77

     kinetic stress (kbar)   1784.36     -0.00      0.00
                               -0.00   1784.36      0.00
                                0.00      0.00   1997.91

     local   stress (kbar) -46826.76     -0.00     -0.00
                               -0.00 -46826.76     -0.00
                               -0.00     -0.00  45916.03

     nonloc. stress (kbar)    612.27     -0.00      0.00
                               -0.00    612.27      0.00
                                0.00      0.00    570.53

     hartree stress (kbar)  22330.86      0.00     -0.00
                                0.00  22330.86     -0.00
                               -0.00     -0.00 -21957.33

     exc-cor stress (kbar)   -246.34      0.00     -0.00
                                0.00   -246.34     -0.00
                               -0.00     -0.00   -263.59

     corecor stress (kbar)   -190.36      0.00     -0.00
                                0.00   -190.36      0.00
                               -0.00      0.00   -184.28

     ewald   stress (kbar)  22534.30      0.00      0.00
                                0.00  22534.30      0.00
                                0.00      0.00 -26080.04

     hubbard stress (kbar)      0.00      0.00      0.00
                                0.00      0.00      0.00
                                0.00      0.00      0.00

     london  stress (kbar)      0.00      0.00      0.00
                                0.00      0.00      0.00
                                0.00      0.00      0.00

     XDM     stress (kbar)      0.00      0.00      0.00
                                0.00      0.00      0.00
                                0.00      0.00      0.00

     dft-nl  stress (kbar)      0.00      0.00      0.00
                                0.00      0.00      0.00
                                0.00      0.00      0.00

     TS-vdW  stress (kbar)      0.00      0.00      0.00
                                0.00      0.00      0.00
                                0.00      0.00      0.00



     bfgs converged in   9 scf cycles and   8 bfgs steps
     (criteria: energy <  1.0E-04 Ry, force <  1.0E-03 Ry/Bohr)

     End of BFGS Geometry Optimization

     Final energy   =   -2585.5067449467 Ry
Begin final coordinates

ATOMIC_POSITIONS (angstrom)
N        1.190341172   0.761501338   9.999941954
B       -1.269655938   3.608922720  10.000007862
N        0.000000000   2.823232725   9.999941954
B       -2.509460504   5.788167494  10.000019784
N       -1.246529976   5.043030726   9.999986399
B       -3.763643801   7.965251252  10.000018484
N       -2.505194360   7.231140776   9.999985193
B       -5.019289283  10.140141774  10.000017998
N       -3.762767051   9.412056486   9.999984702
B       -6.274525160  12.314274088  10.000017998
N       -5.019576597  11.589397436   9.999984320
B       -7.530212861  14.489140235  10.000018484
N       -6.276804400  13.766496906   9.999984702
B       -8.788531054  16.663836711  10.000019784
N       -7.536746463  15.946044658   9.999985193
B      -10.055910106  18.827161347  10.000007862
N       -8.802373160  18.130135015   9.999986399
B        2.505596635   1.468210637  10.000007862
N        3.736007619   0.731128964   9.999986399
B        1.269655938   3.608922720  10.000007862
N        2.508643197   2.897110959   9.999984351
B        0.000000000   5.787496206  10.000019981
N        1.246529976   5.043030726   9.999986399
B       -1.254383442   7.963937599  10.000019165
N        0.000000000   7.227985829   9.999985661
B       -2.509728940  10.139765470  10.000018361
N       -1.254076855   9.409770176   9.999985172
B       -3.764787856  12.313850054  10.000017855
N       -2.509727089  11.587799926   9.999984617
B       -5.020070877  14.487805250  10.000018361
N       -3.766035327  13.763789625   9.999984617
B       -6.276720339  16.662880277  10.000019165
N       -5.024439304  15.940229501   9.999985172
B       -7.534382154  18.837428901  10.000019981
N       -6.286881546  18.117184089   9.999985661
B        5.012780254   1.452290500  10.000019784
N        6.260298701   0.727109270   9.999985193
B        3.778047987   3.630002156  10.000021224
N        5.015266595   2.897544117   9.999985156
B        2.509460504   5.788167494  10.000019784
N        3.762330022   5.067693920   9.999985156
B        1.254383443   7.963937599  10.000019165
N        2.505194361   7.231140776   9.999985193
B        0.000000000  10.139714200  10.000018552
N        1.254076855   9.409770176   9.999985172
B       -1.254969652  12.313968520  10.000018335
N        0.000000000  11.587273930   9.999984721
B       -2.509776159  14.487357144  10.000018335
N       -1.255276391  13.762717174   9.999984544
B       -3.765250808  16.661319903  10.000018552
N       -2.511627308  15.937540039   9.999984721
B       -5.022336896  18.835536131  10.000019165
N       -3.770362449  18.112354330   9.999985172
B        7.525281744   1.449903217  10.000018484
N        8.777813455   0.725741312   9.999984702
B        6.279327347   3.624546000  10.000018197
N        7.526311025   2.897491334   9.999984594
B        5.023962498   5.798901701  10.000018197
N        6.272307137   5.070063348   9.999984611
B        3.763643802   7.965251252  10.000018484
N        5.017806526   7.242348577   9.999984594
B        2.509728940  10.139765470  10.000018361
N        3.762767052   9.412056486   9.999984702
B        1.254969652  12.313968520  10.000018335
N        2.509727089  11.587799926   9.999984617
B        0.000000000  14.487451336  10.000018062
N        1.255276391  13.762717174   9.999984544
B       -1.254806507  16.661028343  10.000018335
N        0.000000000  15.936919660   9.999984544
B       -2.510341937  18.834783288  10.000018361
N       -1.256308238  18.110764456   9.999984617
B       10.036614927   1.449878842  10.000017998
N       11.291850804   0.725499831   9.999984320
B        8.785080917   3.623373032  10.000018143
N       10.036896896   2.897928291   9.999984438
B        7.531172518   5.796869614  10.000017992
N        8.782407515   5.070673741   9.999984483
B        6.275823463   7.969534433  10.000018143
N        7.527885942   7.243568844   9.999984483
B        5.019289284  10.140141774  10.000017998
N        6.273477878   9.416361242   9.999984438
B        3.764787856  12.313850054  10.000017855
N        5.019576597  11.589397436   9.999984320
B        2.509776159  14.487357144  10.000018335
N        3.766035328  13.763789625   9.999984617
B        1.254806507  16.661028343  10.000018335
N        2.511627309  15.937540039   9.999984721
B        0.000000000  18.834653900  10.000017855
N        1.256308239  18.110764456   9.999984617
B       12.547086680   1.449878842  10.000017998
N       13.805888152   0.725741312   9.999984702
B       11.291850804   3.623203657  10.000017874
N       12.546804711   2.897928291   9.999984438
B       10.038229343   5.796061363  10.000017963
N       11.291850804   5.070840769   9.999984470
B        8.784000965   7.968448638  10.000017963
N       10.037229770   7.243742443   9.999984166
B        7.529061723  10.140545523  10.000017874
N        8.782752238   9.416726967   9.999984470
B        6.274525160  12.314274088  10.000017998
N        7.528431785  11.590005171   9.999984438
B        5.020070878  14.487805250  10.000018361
N        6.276804400  13.766496906   9.999984702
B        3.765250809  16.661319903  10.000018552
N        5.024439304  15.940229501   9.999985172
B        2.510341938  18.834783288  10.000018361
N        3.770362449  18.112354330   9.999985172
B       15.058419864   1.449903217  10.000018484
N       16.323402906   0.727109270   9.999985193
B       13.798620690   3.623373032  10.000018143
N       15.057390583   2.897491334   9.999984594
B       12.545472265   5.796061363  10.000017963
N       13.801294093   5.070673741   9.999984483
B       11.291850804   7.968098235  10.000017404
N       12.546471837   7.243742443   9.999984166
B       10.037622426  10.139784703  10.000017963
N       11.291850804   9.416809817   9.999984166
B        8.782593350  12.311387239  10.000018143
N       10.037329231  11.590052119   9.999984483
B        7.530212862  14.489140235  10.000018484
N        8.783346305  13.764454792   9.999984594
B        6.276720340  16.662880277  10.000019165
N        7.536746464  15.946044658   9.999985193
B        5.022336897  18.835536131  10.000019165
N        6.286881547  18.117184089   9.999985661
B       17.570921354   1.452290500  10.000019784
N       18.847693988   0.731128964   9.999986399
B       16.304374260   3.624546000  10.000018197
N       17.568435012   2.897544117   9.999985156
B       15.052529090   5.796869614  10.000017992
N       16.311394471   5.070063348   9.999984611
B       13.799700643   7.968448638  10.000017963
N       15.055815666   7.243568844   9.999984483
B       12.546079182  10.139784703  10.000017963
N       13.800949370   9.416726967   9.999984470
B       11.291850804  12.310555476  10.000017992
N       12.546372377  11.590052119   9.999984483
B       10.036485955  14.480847002  10.000018197
N       11.291850804  13.764168009   9.999984611
B        8.788531054  16.663836711  10.000019784
N       10.038914231  15.939056667   9.999985156
B        7.534382154  18.837428901  10.000019981
N        8.802373161  18.130135015   9.999986399
B       20.078104972   1.468210637  10.000007862
N       21.393360436   0.761501338   9.999941954
B       18.805653621   3.630002156  10.000021224
N       20.075058410   2.897110959   9.999984351
B       17.559739110   5.798901701  10.000018197
N       18.821371586   5.067693920   9.999985156
B       16.307878145   7.969534433  10.000018143
N       17.565895082   7.242348577   9.999984594
B       15.054639885  10.140545523  10.000017874
N       16.310223730   9.416361242   9.999984438
B       13.801108258  12.311387239  10.000018143
N       15.055269823  11.590005171   9.999984438
B       12.547215653  14.480847002  10.000018197
N       13.800355303  13.764454792   9.999984594
B       11.291850804  16.644290393  10.000021224
N       12.544787377  15.939056667   9.999985156
B       10.055910107  18.827161347  10.000007862
N       11.291850804  18.110072787   9.999984351
C        0.000000000   1.448745134   9.999933427
End final coordinates



     Writing output data file aiida.save
 
     init_run     :     72.25s CPU     73.55s WALL (       1 calls)
     electrons    :  11681.67s CPU  11888.25s WALL (       9 calls)
     update_pot   :     85.80s CPU     87.54s WALL (       8 calls)
     forces       :    252.15s CPU    264.93s WALL (       9 calls)
     stress       :   1930.99s CPU   1942.88s WALL (       9 calls)

     Called by init_run:
     wfcinit      :     45.49s CPU     45.95s WALL (       1 calls)
     wfcinit:atom :      0.14s CPU      0.21s WALL (       2 calls)
     wfcinit:wfcr :     44.50s CPU     44.75s WALL (       2 calls)
     potinit      :      4.51s CPU      4.64s WALL (       1 calls)

     Called by electrons:
     c_bands      :   9356.59s CPU   9455.18s WALL (     105 calls)
     sum_band     :   1876.65s CPU   1927.94s WALL (     105 calls)
     v_of_rho     :    152.17s CPU    155.96s WALL (     109 calls)
     v_h          :      7.87s CPU      8.08s WALL (     109 calls)
     v_xc         :    166.34s CPU    170.61s WALL (     127 calls)
     newd         :    234.39s CPU    287.85s WALL (     109 calls)
     PAW_pot      :      8.37s CPU      8.43s WALL (     117 calls)
     mix_rho      :     38.34s CPU     39.20s WALL (     105 calls)

     Called by c_bands:
     init_us_2    :     59.38s CPU     59.63s WALL (     474 calls)
     cegterg      :   8974.05s CPU   9067.18s WALL (     210 calls)

     Called by sum_band:
     sum_band:bec :      0.83s CPU      0.83s WALL (     226 calls)
     addusdens    :    327.14s CPU    368.96s WALL (     105 calls)

     Called by *egterg:
     h_psi        :   5958.01s CPU   5984.35s WALL (    1064 calls)
     s_psi        :    723.31s CPU    723.95s WALL (    1064 calls)
     g_psi        :      9.34s CPU      9.35s WALL (     852 calls)
     cdiaghg      :    748.74s CPU    750.75s WALL (    1036 calls)
     cegterg:over :    652.04s CPU    656.55s WALL (     852 calls)
     cegterg:upda :    446.16s CPU    446.59s WALL (     852 calls)
     cegterg:last :    229.96s CPU    230.41s WALL (     217 calls)

     Called by h_psi:
     h_psi:pot    :   5911.58s CPU   5937.76s WALL (    1064 calls)
     h_psi:calbec :    709.00s CPU    712.40s WALL (    1064 calls)
     vloc_psi     :   4479.40s CPU   4500.76s WALL (    1064 calls)
     add_vuspsi   :    723.16s CPU    724.59s WALL (    1064 calls)

     General routines
     calbec       :   1099.50s CPU   1104.77s WALL (    1380 calls)
     fft          :    216.02s CPU    222.90s WALL (    3725 calls)
     ffts         :      8.78s CPU      8.87s WALL (     428 calls)
     fftw         :   3605.66s CPU   3627.31s WALL (  519646 calls)
     interpolate  :     35.42s CPU     36.31s WALL (     428 calls)
     davcio       :      0.00s CPU      0.20s WALL (       2 calls)
 
     Parallel routines
     fft_scatter  :   2045.70s CPU   2069.14s WALL (  523799 calls)

     PAW routines
     PAW_pot      :      8.37s CPU      8.43s WALL (     117 calls)
     PAW_symme    :      0.19s CPU      0.20s WALL (     222 calls)
 
     PWSCF        :     3h54m CPU        3h58m WALL

 
   This run was terminated on:  17:24:17   6Mar2020            

=------------------------------------------------------------------------------=
   JOB DONE.
=------------------------------------------------------------------------------=
