
     Program PWSCF v.6.1 starts on  6Mar2020 at 13:25:43 

     This program is part of the open-source Quantum ESPRESSO suite
     for quantum simulation of materials; please cite
         "P. Giannozzi et al., J. Phys.:Condens. Matter 21 395502 (2009);
          URL http://www.quantum-espresso.org", 
     in publications or presentations arising from this work. More details at
     http://www.quantum-espresso.org/quote

     Parallel version (MPI), running on    84 processors
     K-points division:     npool     =       2
     R & G space division:  proc/nbgrp/npool/nimage =      42
     Reading input from aiida.in

     Current dimensions of program PWSCF are:
     Max number of different atomic species (ntypx) = 10
     Max number of k-points (npk) =  40000
     Max angular momentum in pseudopotentials (lmaxx) =  3
               file B.pbe-n-kjpaw_psl.0.1.UPF: wavefunction(s)  2P renormalized
               file C.pbe-n-kjpaw_psl.1.0.0.UPF: wavefunction(s)  2S 2P renormalized

     Subspace diagonalization in iterative solution of the eigenvalue problem:
     a serial algorithm will be used

 
     Parallelization info
     --------------------
     sticks:   dense  smooth     PW     G-vecs:    dense   smooth      PW
     Min        1623     810    206               342629   121132   15614
     Max        1624     811    207               342634   121139   15625
     Sum       68185   34051   8689             14390465  5087701  656081
 


     bravais-lattice index     =            0
     lattice parameter (alat)  =      47.4189  a.u.
     unit-cell volume          =   92338.9839 (a.u.)^3
     number of atoms/cell      =          200
     number of atomic types    =            3
     number of electrons       =       800.00
     number of Kohn-Sham states=          480
     kinetic-energy cutoff     =      55.0000  Ry
     charge density cutoff     =     440.0000  Ry
     convergence threshold     =      1.0E-09
     mixing beta               =       0.3000
     number of iterations used =            8  plain     mixing
     Exchange-correlation      = PBE ( 1  4  3  4 0 0)
     nstep                     =          200


     celldm(1)=  47.418901  celldm(2)=   0.000000  celldm(3)=   0.000000
     celldm(4)=   0.000000  celldm(5)=   0.000000  celldm(6)=   0.000000

     crystal axes: (cart. coord. in units of alat)
               a(1) = (   1.000000   0.000000   0.000000 )  
               a(2) = (  -0.500000   0.866025   0.000000 )  
               a(3) = (   0.000000   0.000000   1.000000 )  

     reciprocal axes: (cart. coord. in units 2 pi/alat)
               b(1) = (  1.000000  0.577350  0.000000 )  
               b(2) = (  0.000000  1.154701  0.000000 )  
               b(3) = (  0.000000  0.000000  1.000000 )  


     PseudoPot. # 1 for  B read from file:
     ./pseudo/B.pbe-n-kjpaw_psl.0.1.UPF
     MD5 check sum: b4345a612e0782cca08559f453f3313f
     Pseudo is Projector augmented-wave + core cor, Zval =  3.0
     Generated using "atomic" code by A. Dal Corso  v.5.0.99 svn rev. 10869
     Shape of augmentation charge: BESSEL
     Using radial grid of 1059 points,  4 beta functions with: 
                l(1) =   0
                l(2) =   0
                l(3) =   1
                l(4) =   1
     Q(r) pseudized with 0 coefficients 


     PseudoPot. # 2 for  C read from file:
     ./pseudo/C.pbe-n-kjpaw_psl.1.0.0.UPF
     MD5 check sum: 5d2aebdfa2cae82b50a7e79e9516da0f
     Pseudo is Projector augmented-wave + core cor, Zval =  4.0
     Generated using "atomic" code by A. Dal Corso  v.5.1
     Shape of augmentation charge: PSQ
     Using radial grid of 1073 points,  4 beta functions with: 
                l(1) =   0
                l(2) =   0
                l(3) =   1
                l(4) =   1
     Q(r) pseudized with 0 coefficients 


     PseudoPot. # 3 for  N read from file:
     ./pseudo/N.pbe.theos.UPF
     MD5 check sum: 1fde47ee573fe9ed3106b9b4217eb757
     Pseudo is Ultrasoft + core correction, Zval =  5.0
     Generated using "atomic" code by A. Dal Corso  v.5.1
     Using radial grid of 1085 points,  4 beta functions with: 
                l(1) =   0
                l(2) =   0
                l(3) =   1
                l(4) =   1
     Q(r) pseudized with 0 coefficients 


     atomic species   valence    mass     pseudopotential
        B              3.00    10.81100      B( 1.00)
        C              4.00    12.01070      C( 1.00)
        N              5.00    14.00670      N( 1.00)

     Starting magnetic structure 
     atomic species   magnetization
        B            0.400
        C            0.000
        N            0.000

      6 Sym. Ops. (no inversion) found ( 4 have fractional translation)


                                    s                        frac. trans.

      isym =  1     identity                                     

 cryst.   s( 1) = (     1          0          0      )
                  (     0          1          0      )
                  (     0          0          1      )

 cart.    s( 1) = (  1.0000000  0.0000000  0.0000000 )
                  (  0.0000000  1.0000000  0.0000000 )
                  (  0.0000000  0.0000000  1.0000000 )


      isym =  2     120 deg rotation - cryst. axis [0,0,1]       

 cryst.   s( 2) = (     0          1          0      )    f =( -0.1000000 )
                  (    -1         -1          0      )       ( -0.1000000 )
                  (     0          0          1      )       (  0.0000000 )

 cart.    s( 2) = ( -0.5000000 -0.8660254  0.0000000 )    f =( -0.0500000 )
                  (  0.8660254 -0.5000000  0.0000000 )       ( -0.0866025 )
                  (  0.0000000  0.0000000  1.0000000 )       (  0.0000000 )


      isym =  3     120 deg rotation - cryst. axis [0,0,-1]      

 cryst.   s( 3) = (    -1         -1          0      )    f =( -0.0000000 )
                  (     1          0          0      )       ( -0.1000000 )
                  (     0          0          1      )       (  0.0000000 )

 cart.    s( 3) = ( -0.5000000  0.8660254  0.0000000 )    f =(  0.0500000 )
                  ( -0.8660254 -0.5000000  0.0000000 )       ( -0.0866025 )
                  (  0.0000000  0.0000000  1.0000000 )       (  0.0000000 )


      isym =  4     inv. 180 deg rotation - cart. axis [1,0,0]   

 cryst.   s( 4) = (    -1          0          0      )
                  (     1          1          0      )
                  (     0          0          1      )

 cart.    s( 4) = ( -1.0000000  0.0000000  0.0000000 )
                  (  0.0000000  1.0000000  0.0000000 )
                  (  0.0000000  0.0000000  1.0000000 )


      isym =  5     inv. 180 deg rotation - cryst. axis [0,1,0]  

 cryst.   s( 5) = (     1          1          0      )    f =( -0.0000000 )
                  (     0         -1          0      )       ( -0.1000000 )
                  (     0          0          1      )       (  0.0000000 )

 cart.    s( 5) = (  0.5000000  0.8660254  0.0000000 )    f =(  0.0500000 )
                  (  0.8660254 -0.5000000  0.0000000 )       ( -0.0866025 )
                  (  0.0000000  0.0000000  1.0000000 )       (  0.0000000 )


      isym =  6     inv. 180 deg rotation - cryst. axis [1,1,0]  

 cryst.   s( 6) = (     0         -1          0      )    f =( -0.1000000 )
                  (    -1          0          0      )       ( -0.1000000 )
                  (     0          0          1      )       (  0.0000000 )

 cart.    s( 6) = (  0.5000000 -0.8660254  0.0000000 )    f =( -0.0500000 )
                  ( -0.8660254 -0.5000000  0.0000000 )       ( -0.0866025 )
                  (  0.0000000  0.0000000  1.0000000 )       (  0.0000000 )


   Cartesian axes

     site n.     atom                  positions (alat units)
         1           N   tau(   1) = (   0.0500000   0.0288675   0.3985175  )
         2           B   tau(   2) = (  -0.0500000   0.1443376   0.3985175  )
         3           N   tau(   3) = (   0.0000000   0.1154701   0.3985175  )
         4           B   tau(   4) = (  -0.1000000   0.2309401   0.3985175  )
         5           N   tau(   5) = (  -0.0500000   0.2020726   0.3985175  )
         6           B   tau(   6) = (  -0.1500000   0.3175426   0.3985175  )
         7           N   tau(   7) = (  -0.1000000   0.2886751   0.3985175  )
         8           B   tau(   8) = (  -0.2000000   0.4041452   0.3985175  )
         9           N   tau(   9) = (  -0.1500000   0.3752777   0.3985175  )
        10           B   tau(  10) = (  -0.2500000   0.4907477   0.3985175  )
        11           N   tau(  11) = (  -0.2000000   0.4618802   0.3985175  )
        12           B   tau(  12) = (  -0.3000000   0.5773503   0.3985175  )
        13           N   tau(  13) = (  -0.2500000   0.5484828   0.3985175  )
        14           B   tau(  14) = (  -0.3500000   0.6639528   0.3985175  )
        15           N   tau(  15) = (  -0.3000000   0.6350853   0.3985175  )
        16           B   tau(  16) = (  -0.4000000   0.7505553   0.3985175  )
        17           N   tau(  17) = (  -0.3500000   0.7216878   0.3985175  )
        18           B   tau(  18) = (  -0.4500000   0.8371579   0.3985175  )
        19           N   tau(  19) = (  -0.4000000   0.8082904   0.3985175  )
        20           B   tau(  20) = (   0.1000000   0.0577350   0.3985175  )
        21           N   tau(  21) = (   0.1500000   0.0288675   0.3985175  )
        22           B   tau(  22) = (   0.0500000   0.1443376   0.3985175  )
        23           N   tau(  23) = (   0.1000000   0.1154701   0.3985175  )
        24           B   tau(  24) = (   0.0000000   0.2309401   0.3985175  )
        25           N   tau(  25) = (   0.0500000   0.2020726   0.3985175  )
        26           B   tau(  26) = (  -0.0500000   0.3175426   0.3985175  )
        27           N   tau(  27) = (   0.0000000   0.2886751   0.3985175  )
        28           B   tau(  28) = (  -0.1000000   0.4041452   0.3985175  )
        29           N   tau(  29) = (  -0.0500000   0.3752777   0.3985175  )
        30           B   tau(  30) = (  -0.1500000   0.4907477   0.3985175  )
        31           N   tau(  31) = (  -0.1000000   0.4618802   0.3985175  )
        32           B   tau(  32) = (  -0.2000000   0.5773503   0.3985175  )
        33           N   tau(  33) = (  -0.1500000   0.5484828   0.3985175  )
        34           B   tau(  34) = (  -0.2500000   0.6639528   0.3985175  )
        35           N   tau(  35) = (  -0.2000000   0.6350853   0.3985175  )
        36           B   tau(  36) = (  -0.3000000   0.7505553   0.3985175  )
        37           N   tau(  37) = (  -0.2500000   0.7216878   0.3985175  )
        38           B   tau(  38) = (  -0.3500000   0.8371579   0.3985175  )
        39           N   tau(  39) = (  -0.3000000   0.8082904   0.3985175  )
        40           B   tau(  40) = (   0.2000000   0.0577350   0.3985175  )
        41           N   tau(  41) = (   0.2500000   0.0288675   0.3985175  )
        42           B   tau(  42) = (   0.1500000   0.1443376   0.3985175  )
        43           N   tau(  43) = (   0.2000000   0.1154701   0.3985175  )
        44           B   tau(  44) = (   0.1000000   0.2309401   0.3985175  )
        45           N   tau(  45) = (   0.1500000   0.2020726   0.3985175  )
        46           B   tau(  46) = (   0.0500000   0.3175426   0.3985175  )
        47           N   tau(  47) = (   0.1000000   0.2886751   0.3985175  )
        48           B   tau(  48) = (   0.0000000   0.4041452   0.3985175  )
        49           N   tau(  49) = (   0.0500000   0.3752777   0.3985175  )
        50           B   tau(  50) = (  -0.0500000   0.4907477   0.3985175  )
        51           N   tau(  51) = (   0.0000000   0.4618802   0.3985175  )
        52           B   tau(  52) = (  -0.1000000   0.5773503   0.3985175  )
        53           N   tau(  53) = (  -0.0500000   0.5484828   0.3985175  )
        54           B   tau(  54) = (  -0.1500000   0.6639528   0.3985175  )
        55           N   tau(  55) = (  -0.1000000   0.6350853   0.3985175  )
        56           B   tau(  56) = (  -0.2000000   0.7505553   0.3985175  )
        57           N   tau(  57) = (  -0.1500000   0.7216878   0.3985175  )
        58           B   tau(  58) = (  -0.2500000   0.8371579   0.3985175  )
        59           N   tau(  59) = (  -0.2000000   0.8082904   0.3985175  )
        60           B   tau(  60) = (   0.3000000   0.0577350   0.3985175  )
        61           N   tau(  61) = (   0.3500000   0.0288675   0.3985175  )
        62           B   tau(  62) = (   0.2500000   0.1443376   0.3985175  )
        63           N   tau(  63) = (   0.3000000   0.1154701   0.3985175  )
        64           B   tau(  64) = (   0.2000000   0.2309401   0.3985175  )
        65           N   tau(  65) = (   0.2500000   0.2020726   0.3985175  )
        66           B   tau(  66) = (   0.1500000   0.3175426   0.3985175  )
        67           N   tau(  67) = (   0.2000000   0.2886751   0.3985175  )
        68           B   tau(  68) = (   0.1000000   0.4041452   0.3985175  )
        69           N   tau(  69) = (   0.1500000   0.3752777   0.3985175  )
        70           B   tau(  70) = (   0.0500000   0.4907477   0.3985175  )
        71           N   tau(  71) = (   0.1000000   0.4618802   0.3985175  )
        72           B   tau(  72) = (   0.0000000   0.5773503   0.3985175  )
        73           N   tau(  73) = (   0.0500000   0.5484828   0.3985175  )
        74           B   tau(  74) = (  -0.0500000   0.6639528   0.3985175  )
        75           N   tau(  75) = (   0.0000000   0.6350853   0.3985175  )
        76           B   tau(  76) = (  -0.1000000   0.7505553   0.3985175  )
        77           N   tau(  77) = (  -0.0500000   0.7216878   0.3985175  )
        78           B   tau(  78) = (  -0.1500000   0.8371579   0.3985175  )
        79           N   tau(  79) = (  -0.1000000   0.8082904   0.3985175  )
        80           B   tau(  80) = (   0.4000000   0.0577350   0.3985175  )
        81           N   tau(  81) = (   0.4500000   0.0288675   0.3985175  )
        82           B   tau(  82) = (   0.3500000   0.1443376   0.3985175  )
        83           N   tau(  83) = (   0.4000000   0.1154701   0.3985175  )
        84           B   tau(  84) = (   0.3000000   0.2309401   0.3985175  )
        85           N   tau(  85) = (   0.3500000   0.2020726   0.3985175  )
        86           B   tau(  86) = (   0.2500000   0.3175426   0.3985175  )
        87           N   tau(  87) = (   0.3000000   0.2886751   0.3985175  )
        88           B   tau(  88) = (   0.2000000   0.4041452   0.3985175  )
        89           N   tau(  89) = (   0.2500000   0.3752777   0.3985175  )
        90           B   tau(  90) = (   0.1500000   0.4907477   0.3985175  )
        91           N   tau(  91) = (   0.2000000   0.4618802   0.3985175  )
        92           B   tau(  92) = (   0.1000000   0.5773503   0.3985175  )
        93           N   tau(  93) = (   0.1500000   0.5484828   0.3985175  )
        94           B   tau(  94) = (   0.0500000   0.6639528   0.3985175  )
        95           N   tau(  95) = (   0.1000000   0.6350853   0.3985175  )
        96           B   tau(  96) = (   0.0000000   0.7505553   0.3985175  )
        97           N   tau(  97) = (   0.0500000   0.7216878   0.3985175  )
        98           B   tau(  98) = (  -0.0500000   0.8371579   0.3985175  )
        99           N   tau(  99) = (   0.0000000   0.8082904   0.3985175  )
       100           B   tau( 100) = (   0.5000000   0.0577350   0.3985175  )
       101           N   tau( 101) = (   0.5500000   0.0288675   0.3985175  )
       102           B   tau( 102) = (   0.4500000   0.1443376   0.3985175  )
       103           N   tau( 103) = (   0.5000000   0.1154701   0.3985175  )
       104           B   tau( 104) = (   0.4000000   0.2309401   0.3985175  )
       105           N   tau( 105) = (   0.4500000   0.2020726   0.3985175  )
       106           B   tau( 106) = (   0.3500000   0.3175426   0.3985175  )
       107           N   tau( 107) = (   0.4000000   0.2886751   0.3985175  )
       108           B   tau( 108) = (   0.3000000   0.4041452   0.3985175  )
       109           N   tau( 109) = (   0.3500000   0.3752777   0.3985175  )
       110           B   tau( 110) = (   0.2500000   0.4907477   0.3985175  )
       111           N   tau( 111) = (   0.3000000   0.4618802   0.3985175  )
       112           B   tau( 112) = (   0.2000000   0.5773503   0.3985175  )
       113           N   tau( 113) = (   0.2500000   0.5484828   0.3985175  )
       114           B   tau( 114) = (   0.1500000   0.6639528   0.3985175  )
       115           N   tau( 115) = (   0.2000000   0.6350853   0.3985175  )
       116           B   tau( 116) = (   0.1000000   0.7505553   0.3985175  )
       117           N   tau( 117) = (   0.1500000   0.7216878   0.3985175  )
       118           B   tau( 118) = (   0.0500000   0.8371579   0.3985175  )
       119           N   tau( 119) = (   0.1000000   0.8082904   0.3985175  )
       120           B   tau( 120) = (   0.6000000   0.0577350   0.3985175  )
       121           N   tau( 121) = (   0.6500000   0.0288675   0.3985175  )
       122           B   tau( 122) = (   0.5500000   0.1443376   0.3985175  )
       123           N   tau( 123) = (   0.6000000   0.1154701   0.3985175  )
       124           B   tau( 124) = (   0.5000000   0.2309401   0.3985175  )
       125           N   tau( 125) = (   0.5500000   0.2020726   0.3985175  )
       126           B   tau( 126) = (   0.4500000   0.3175426   0.3985175  )
       127           N   tau( 127) = (   0.5000000   0.2886751   0.3985175  )
       128           B   tau( 128) = (   0.4000000   0.4041452   0.3985175  )
       129           N   tau( 129) = (   0.4500000   0.3752777   0.3985175  )
       130           B   tau( 130) = (   0.3500000   0.4907477   0.3985175  )
       131           N   tau( 131) = (   0.4000000   0.4618802   0.3985175  )
       132           B   tau( 132) = (   0.3000000   0.5773503   0.3985175  )
       133           N   tau( 133) = (   0.3500000   0.5484828   0.3985175  )
       134           B   tau( 134) = (   0.2500000   0.6639528   0.3985175  )
       135           N   tau( 135) = (   0.3000000   0.6350853   0.3985175  )
       136           B   tau( 136) = (   0.2000000   0.7505553   0.3985175  )
       137           N   tau( 137) = (   0.2500000   0.7216878   0.3985175  )
       138           B   tau( 138) = (   0.1500000   0.8371579   0.3985175  )
       139           N   tau( 139) = (   0.2000000   0.8082904   0.3985175  )
       140           B   tau( 140) = (   0.7000000   0.0577350   0.3985175  )
       141           N   tau( 141) = (   0.7500000   0.0288675   0.3985175  )
       142           B   tau( 142) = (   0.6500000   0.1443376   0.3985175  )
       143           N   tau( 143) = (   0.7000000   0.1154701   0.3985175  )
       144           B   tau( 144) = (   0.6000000   0.2309401   0.3985175  )
       145           N   tau( 145) = (   0.6500000   0.2020726   0.3985175  )
       146           B   tau( 146) = (   0.5500000   0.3175426   0.3985175  )
       147           N   tau( 147) = (   0.6000000   0.2886751   0.3985175  )
       148           B   tau( 148) = (   0.5000000   0.4041452   0.3985175  )
       149           N   tau( 149) = (   0.5500000   0.3752777   0.3985175  )
       150           B   tau( 150) = (   0.4500000   0.4907477   0.3985175  )
       151           N   tau( 151) = (   0.5000000   0.4618802   0.3985175  )
       152           B   tau( 152) = (   0.4000000   0.5773503   0.3985175  )
       153           N   tau( 153) = (   0.4500000   0.5484828   0.3985175  )
       154           B   tau( 154) = (   0.3500000   0.6639528   0.3985175  )
       155           N   tau( 155) = (   0.4000000   0.6350853   0.3985175  )
       156           B   tau( 156) = (   0.3000000   0.7505553   0.3985175  )
       157           N   tau( 157) = (   0.3500000   0.7216878   0.3985175  )
       158           B   tau( 158) = (   0.2500000   0.8371579   0.3985175  )
       159           N   tau( 159) = (   0.3000000   0.8082904   0.3985175  )
       160           B   tau( 160) = (   0.8000000   0.0577350   0.3985175  )
       161           N   tau( 161) = (   0.8500000   0.0288675   0.3985175  )
       162           B   tau( 162) = (   0.7500000   0.1443376   0.3985175  )
       163           N   tau( 163) = (   0.8000000   0.1154701   0.3985175  )
       164           B   tau( 164) = (   0.7000000   0.2309401   0.3985175  )
       165           N   tau( 165) = (   0.7500000   0.2020726   0.3985175  )
       166           B   tau( 166) = (   0.6500000   0.3175426   0.3985175  )
       167           N   tau( 167) = (   0.7000000   0.2886751   0.3985175  )
       168           B   tau( 168) = (   0.6000000   0.4041452   0.3985175  )
       169           N   tau( 169) = (   0.6500000   0.3752777   0.3985175  )
       170           B   tau( 170) = (   0.5500000   0.4907477   0.3985175  )
       171           N   tau( 171) = (   0.6000000   0.4618802   0.3985175  )
       172           B   tau( 172) = (   0.5000000   0.5773503   0.3985175  )
       173           N   tau( 173) = (   0.5500000   0.5484828   0.3985175  )
       174           B   tau( 174) = (   0.4500000   0.6639528   0.3985175  )
       175           N   tau( 175) = (   0.5000000   0.6350853   0.3985175  )
       176           B   tau( 176) = (   0.4000000   0.7505553   0.3985175  )
       177           N   tau( 177) = (   0.4500000   0.7216878   0.3985175  )
       178           B   tau( 178) = (   0.3500000   0.8371579   0.3985175  )
       179           N   tau( 179) = (   0.4000000   0.8082904   0.3985175  )
       180           B   tau( 180) = (   0.9000000   0.0577350   0.3985175  )
       181           N   tau( 181) = (   0.9500000   0.0288675   0.3985175  )
       182           B   tau( 182) = (   0.8500000   0.1443376   0.3985175  )
       183           N   tau( 183) = (   0.9000000   0.1154701   0.3985175  )
       184           B   tau( 184) = (   0.8000000   0.2309401   0.3985175  )
       185           N   tau( 185) = (   0.8500000   0.2020726   0.3985175  )
       186           B   tau( 186) = (   0.7500000   0.3175426   0.3985175  )
       187           N   tau( 187) = (   0.8000000   0.2886751   0.3985175  )
       188           B   tau( 188) = (   0.7000000   0.4041452   0.3985175  )
       189           N   tau( 189) = (   0.7500000   0.3752777   0.3985175  )
       190           B   tau( 190) = (   0.6500000   0.4907477   0.3985175  )
       191           N   tau( 191) = (   0.7000000   0.4618802   0.3985175  )
       192           B   tau( 192) = (   0.6000000   0.5773503   0.3985175  )
       193           N   tau( 193) = (   0.6500000   0.5484828   0.3985175  )
       194           B   tau( 194) = (   0.5500000   0.6639528   0.3985175  )
       195           N   tau( 195) = (   0.6000000   0.6350853   0.3985175  )
       196           B   tau( 196) = (   0.5000000   0.7505553   0.3985175  )
       197           N   tau( 197) = (   0.5500000   0.7216878   0.3985175  )
       198           B   tau( 198) = (   0.4500000   0.8371579   0.3985175  )
       199           N   tau( 199) = (   0.5000000   0.8082904   0.3985175  )
       200           C   tau( 200) = (   0.0000000   0.0577350   0.3985175  )

   Crystallographic axes

     site n.     atom                  positions (cryst. coord.)
         1           N   tau(   1) = (  0.0666667  0.0333333  0.3985175  )
         2           B   tau(   2) = (  0.0333333  0.1666667  0.3985175  )
         3           N   tau(   3) = (  0.0666667  0.1333333  0.3985175  )
         4           B   tau(   4) = (  0.0333333  0.2666667  0.3985175  )
         5           N   tau(   5) = (  0.0666667  0.2333333  0.3985175  )
         6           B   tau(   6) = (  0.0333333  0.3666667  0.3985175  )
         7           N   tau(   7) = (  0.0666667  0.3333333  0.3985175  )
         8           B   tau(   8) = (  0.0333333  0.4666667  0.3985175  )
         9           N   tau(   9) = (  0.0666667  0.4333333  0.3985175  )
        10           B   tau(  10) = (  0.0333333  0.5666667  0.3985175  )
        11           N   tau(  11) = (  0.0666667  0.5333333  0.3985175  )
        12           B   tau(  12) = (  0.0333333  0.6666667  0.3985175  )
        13           N   tau(  13) = (  0.0666667  0.6333333  0.3985175  )
        14           B   tau(  14) = (  0.0333333  0.7666667  0.3985175  )
        15           N   tau(  15) = (  0.0666667  0.7333333  0.3985175  )
        16           B   tau(  16) = (  0.0333333  0.8666667  0.3985175  )
        17           N   tau(  17) = (  0.0666667  0.8333333  0.3985175  )
        18           B   tau(  18) = (  0.0333333  0.9666667  0.3985175  )
        19           N   tau(  19) = (  0.0666667  0.9333333  0.3985175  )
        20           B   tau(  20) = (  0.1333333  0.0666667  0.3985175  )
        21           N   tau(  21) = (  0.1666667  0.0333333  0.3985175  )
        22           B   tau(  22) = (  0.1333333  0.1666667  0.3985175  )
        23           N   tau(  23) = (  0.1666667  0.1333333  0.3985175  )
        24           B   tau(  24) = (  0.1333333  0.2666667  0.3985175  )
        25           N   tau(  25) = (  0.1666667  0.2333333  0.3985175  )
        26           B   tau(  26) = (  0.1333333  0.3666667  0.3985175  )
        27           N   tau(  27) = (  0.1666667  0.3333333  0.3985175  )
        28           B   tau(  28) = (  0.1333333  0.4666667  0.3985175  )
        29           N   tau(  29) = (  0.1666667  0.4333333  0.3985175  )
        30           B   tau(  30) = (  0.1333333  0.5666667  0.3985175  )
        31           N   tau(  31) = (  0.1666667  0.5333333  0.3985175  )
        32           B   tau(  32) = (  0.1333333  0.6666667  0.3985175  )
        33           N   tau(  33) = (  0.1666667  0.6333333  0.3985175  )
        34           B   tau(  34) = (  0.1333333  0.7666667  0.3985175  )
        35           N   tau(  35) = (  0.1666667  0.7333333  0.3985175  )
        36           B   tau(  36) = (  0.1333333  0.8666667  0.3985175  )
        37           N   tau(  37) = (  0.1666667  0.8333333  0.3985175  )
        38           B   tau(  38) = (  0.1333333  0.9666667  0.3985175  )
        39           N   tau(  39) = (  0.1666667  0.9333333  0.3985175  )
        40           B   tau(  40) = (  0.2333333  0.0666667  0.3985175  )
        41           N   tau(  41) = (  0.2666667  0.0333333  0.3985175  )
        42           B   tau(  42) = (  0.2333333  0.1666667  0.3985175  )
        43           N   tau(  43) = (  0.2666667  0.1333333  0.3985175  )
        44           B   tau(  44) = (  0.2333333  0.2666667  0.3985175  )
        45           N   tau(  45) = (  0.2666667  0.2333333  0.3985175  )
        46           B   tau(  46) = (  0.2333333  0.3666667  0.3985175  )
        47           N   tau(  47) = (  0.2666667  0.3333333  0.3985175  )
        48           B   tau(  48) = (  0.2333333  0.4666667  0.3985175  )
        49           N   tau(  49) = (  0.2666667  0.4333333  0.3985175  )
        50           B   tau(  50) = (  0.2333333  0.5666667  0.3985175  )
        51           N   tau(  51) = (  0.2666667  0.5333333  0.3985175  )
        52           B   tau(  52) = (  0.2333333  0.6666667  0.3985175  )
        53           N   tau(  53) = (  0.2666667  0.6333333  0.3985175  )
        54           B   tau(  54) = (  0.2333333  0.7666667  0.3985175  )
        55           N   tau(  55) = (  0.2666667  0.7333333  0.3985175  )
        56           B   tau(  56) = (  0.2333333  0.8666667  0.3985175  )
        57           N   tau(  57) = (  0.2666667  0.8333333  0.3985175  )
        58           B   tau(  58) = (  0.2333333  0.9666667  0.3985175  )
        59           N   tau(  59) = (  0.2666667  0.9333333  0.3985175  )
        60           B   tau(  60) = (  0.3333333  0.0666667  0.3985175  )
        61           N   tau(  61) = (  0.3666667  0.0333333  0.3985175  )
        62           B   tau(  62) = (  0.3333333  0.1666667  0.3985175  )
        63           N   tau(  63) = (  0.3666667  0.1333333  0.3985175  )
        64           B   tau(  64) = (  0.3333333  0.2666667  0.3985175  )
        65           N   tau(  65) = (  0.3666667  0.2333333  0.3985175  )
        66           B   tau(  66) = (  0.3333333  0.3666667  0.3985175  )
        67           N   tau(  67) = (  0.3666667  0.3333333  0.3985175  )
        68           B   tau(  68) = (  0.3333333  0.4666667  0.3985175  )
        69           N   tau(  69) = (  0.3666667  0.4333333  0.3985175  )
        70           B   tau(  70) = (  0.3333333  0.5666667  0.3985175  )
        71           N   tau(  71) = (  0.3666667  0.5333333  0.3985175  )
        72           B   tau(  72) = (  0.3333333  0.6666667  0.3985175  )
        73           N   tau(  73) = (  0.3666667  0.6333333  0.3985175  )
        74           B   tau(  74) = (  0.3333333  0.7666667  0.3985175  )
        75           N   tau(  75) = (  0.3666667  0.7333333  0.3985175  )
        76           B   tau(  76) = (  0.3333333  0.8666667  0.3985175  )
        77           N   tau(  77) = (  0.3666667  0.8333333  0.3985175  )
        78           B   tau(  78) = (  0.3333333  0.9666667  0.3985175  )
        79           N   tau(  79) = (  0.3666667  0.9333333  0.3985175  )
        80           B   tau(  80) = (  0.4333333  0.0666667  0.3985175  )
        81           N   tau(  81) = (  0.4666667  0.0333333  0.3985175  )
        82           B   tau(  82) = (  0.4333333  0.1666667  0.3985175  )
        83           N   tau(  83) = (  0.4666667  0.1333333  0.3985175  )
        84           B   tau(  84) = (  0.4333333  0.2666667  0.3985175  )
        85           N   tau(  85) = (  0.4666667  0.2333333  0.3985175  )
        86           B   tau(  86) = (  0.4333333  0.3666667  0.3985175  )
        87           N   tau(  87) = (  0.4666667  0.3333333  0.3985175  )
        88           B   tau(  88) = (  0.4333333  0.4666667  0.3985175  )
        89           N   tau(  89) = (  0.4666667  0.4333333  0.3985175  )
        90           B   tau(  90) = (  0.4333333  0.5666667  0.3985175  )
        91           N   tau(  91) = (  0.4666667  0.5333333  0.3985175  )
        92           B   tau(  92) = (  0.4333333  0.6666667  0.3985175  )
        93           N   tau(  93) = (  0.4666667  0.6333333  0.3985175  )
        94           B   tau(  94) = (  0.4333333  0.7666667  0.3985175  )
        95           N   tau(  95) = (  0.4666667  0.7333333  0.3985175  )
        96           B   tau(  96) = (  0.4333333  0.8666667  0.3985175  )
        97           N   tau(  97) = (  0.4666667  0.8333333  0.3985175  )
        98           B   tau(  98) = (  0.4333333  0.9666667  0.3985175  )
        99           N   tau(  99) = (  0.4666667  0.9333333  0.3985175  )
       100           B   tau( 100) = (  0.5333333  0.0666667  0.3985175  )
       101           N   tau( 101) = (  0.5666667  0.0333333  0.3985175  )
       102           B   tau( 102) = (  0.5333333  0.1666667  0.3985175  )
       103           N   tau( 103) = (  0.5666667  0.1333333  0.3985175  )
       104           B   tau( 104) = (  0.5333333  0.2666667  0.3985175  )
       105           N   tau( 105) = (  0.5666667  0.2333333  0.3985175  )
       106           B   tau( 106) = (  0.5333333  0.3666667  0.3985175  )
       107           N   tau( 107) = (  0.5666667  0.3333333  0.3985175  )
       108           B   tau( 108) = (  0.5333333  0.4666667  0.3985175  )
       109           N   tau( 109) = (  0.5666667  0.4333333  0.3985175  )
       110           B   tau( 110) = (  0.5333333  0.5666667  0.3985175  )
       111           N   tau( 111) = (  0.5666667  0.5333333  0.3985175  )
       112           B   tau( 112) = (  0.5333333  0.6666667  0.3985175  )
       113           N   tau( 113) = (  0.5666667  0.6333333  0.3985175  )
       114           B   tau( 114) = (  0.5333333  0.7666667  0.3985175  )
       115           N   tau( 115) = (  0.5666667  0.7333333  0.3985175  )
       116           B   tau( 116) = (  0.5333333  0.8666667  0.3985175  )
       117           N   tau( 117) = (  0.5666667  0.8333333  0.3985175  )
       118           B   tau( 118) = (  0.5333333  0.9666667  0.3985175  )
       119           N   tau( 119) = (  0.5666667  0.9333333  0.3985175  )
       120           B   tau( 120) = (  0.6333333  0.0666667  0.3985175  )
       121           N   tau( 121) = (  0.6666667  0.0333333  0.3985175  )
       122           B   tau( 122) = (  0.6333333  0.1666667  0.3985175  )
       123           N   tau( 123) = (  0.6666667  0.1333333  0.3985175  )
       124           B   tau( 124) = (  0.6333333  0.2666667  0.3985175  )
       125           N   tau( 125) = (  0.6666667  0.2333333  0.3985175  )
       126           B   tau( 126) = (  0.6333333  0.3666667  0.3985175  )
       127           N   tau( 127) = (  0.6666667  0.3333333  0.3985175  )
       128           B   tau( 128) = (  0.6333333  0.4666667  0.3985175  )
       129           N   tau( 129) = (  0.6666667  0.4333333  0.3985175  )
       130           B   tau( 130) = (  0.6333333  0.5666667  0.3985175  )
       131           N   tau( 131) = (  0.6666667  0.5333333  0.3985175  )
       132           B   tau( 132) = (  0.6333333  0.6666667  0.3985175  )
       133           N   tau( 133) = (  0.6666667  0.6333333  0.3985175  )
       134           B   tau( 134) = (  0.6333333  0.7666667  0.3985175  )
       135           N   tau( 135) = (  0.6666667  0.7333333  0.3985175  )
       136           B   tau( 136) = (  0.6333333  0.8666667  0.3985175  )
       137           N   tau( 137) = (  0.6666667  0.8333333  0.3985175  )
       138           B   tau( 138) = (  0.6333333  0.9666667  0.3985175  )
       139           N   tau( 139) = (  0.6666667  0.9333333  0.3985175  )
       140           B   tau( 140) = (  0.7333333  0.0666667  0.3985175  )
       141           N   tau( 141) = (  0.7666667  0.0333333  0.3985175  )
       142           B   tau( 142) = (  0.7333333  0.1666667  0.3985175  )
       143           N   tau( 143) = (  0.7666667  0.1333333  0.3985175  )
       144           B   tau( 144) = (  0.7333333  0.2666667  0.3985175  )
       145           N   tau( 145) = (  0.7666667  0.2333333  0.3985175  )
       146           B   tau( 146) = (  0.7333333  0.3666667  0.3985175  )
       147           N   tau( 147) = (  0.7666667  0.3333333  0.3985175  )
       148           B   tau( 148) = (  0.7333333  0.4666667  0.3985175  )
       149           N   tau( 149) = (  0.7666667  0.4333333  0.3985175  )
       150           B   tau( 150) = (  0.7333333  0.5666667  0.3985175  )
       151           N   tau( 151) = (  0.7666667  0.5333333  0.3985175  )
       152           B   tau( 152) = (  0.7333333  0.6666667  0.3985175  )
       153           N   tau( 153) = (  0.7666667  0.6333333  0.3985175  )
       154           B   tau( 154) = (  0.7333333  0.7666667  0.3985175  )
       155           N   tau( 155) = (  0.7666667  0.7333333  0.3985175  )
       156           B   tau( 156) = (  0.7333333  0.8666667  0.3985175  )
       157           N   tau( 157) = (  0.7666667  0.8333333  0.3985175  )
       158           B   tau( 158) = (  0.7333333  0.9666667  0.3985175  )
       159           N   tau( 159) = (  0.7666667  0.9333333  0.3985175  )
       160           B   tau( 160) = (  0.8333333  0.0666667  0.3985175  )
       161           N   tau( 161) = (  0.8666667  0.0333333  0.3985175  )
       162           B   tau( 162) = (  0.8333333  0.1666667  0.3985175  )
       163           N   tau( 163) = (  0.8666667  0.1333333  0.3985175  )
       164           B   tau( 164) = (  0.8333333  0.2666667  0.3985175  )
       165           N   tau( 165) = (  0.8666667  0.2333333  0.3985175  )
       166           B   tau( 166) = (  0.8333333  0.3666667  0.3985175  )
       167           N   tau( 167) = (  0.8666667  0.3333333  0.3985175  )
       168           B   tau( 168) = (  0.8333333  0.4666667  0.3985175  )
       169           N   tau( 169) = (  0.8666667  0.4333333  0.3985175  )
       170           B   tau( 170) = (  0.8333333  0.5666667  0.3985175  )
       171           N   tau( 171) = (  0.8666667  0.5333333  0.3985175  )
       172           B   tau( 172) = (  0.8333333  0.6666667  0.3985175  )
       173           N   tau( 173) = (  0.8666667  0.6333333  0.3985175  )
       174           B   tau( 174) = (  0.8333333  0.7666667  0.3985175  )
       175           N   tau( 175) = (  0.8666667  0.7333333  0.3985175  )
       176           B   tau( 176) = (  0.8333333  0.8666667  0.3985175  )
       177           N   tau( 177) = (  0.8666667  0.8333333  0.3985175  )
       178           B   tau( 178) = (  0.8333333  0.9666667  0.3985175  )
       179           N   tau( 179) = (  0.8666667  0.9333333  0.3985175  )
       180           B   tau( 180) = (  0.9333333  0.0666667  0.3985175  )
       181           N   tau( 181) = (  0.9666667  0.0333333  0.3985175  )
       182           B   tau( 182) = (  0.9333333  0.1666667  0.3985175  )
       183           N   tau( 183) = (  0.9666667  0.1333333  0.3985175  )
       184           B   tau( 184) = (  0.9333333  0.2666667  0.3985175  )
       185           N   tau( 185) = (  0.9666667  0.2333333  0.3985175  )
       186           B   tau( 186) = (  0.9333333  0.3666667  0.3985175  )
       187           N   tau( 187) = (  0.9666667  0.3333333  0.3985175  )
       188           B   tau( 188) = (  0.9333333  0.4666667  0.3985175  )
       189           N   tau( 189) = (  0.9666667  0.4333333  0.3985175  )
       190           B   tau( 190) = (  0.9333333  0.5666667  0.3985175  )
       191           N   tau( 191) = (  0.9666667  0.5333333  0.3985175  )
       192           B   tau( 192) = (  0.9333333  0.6666667  0.3985175  )
       193           N   tau( 193) = (  0.9666667  0.6333333  0.3985175  )
       194           B   tau( 194) = (  0.9333333  0.7666667  0.3985175  )
       195           N   tau( 195) = (  0.9666667  0.7333333  0.3985175  )
       196           B   tau( 196) = (  0.9333333  0.8666667  0.3985175  )
       197           N   tau( 197) = (  0.9666667  0.8333333  0.3985175  )
       198           B   tau( 198) = (  0.9333333  0.9666667  0.3985175  )
       199           N   tau( 199) = (  0.9666667  0.9333333  0.3985175  )
       200           C   tau( 200) = (  0.0333333  0.0666667  0.3985175  )

     number of k points=     2  Marzari-Vanderbilt smearing, width (Ry)=  0.0050
                       cart. coord. in units 2pi/alat
        k(    1) = (   0.0000000   0.0000000   0.0000000), wk =   0.2500000
        k(    2) = (   0.0000000  -0.5773503   0.0000000), wk =   0.7500000

                       cryst. coord.
        k(    1) = (   0.0000000   0.0000000   0.0000000), wk =   0.2500000
        k(    2) = (   0.0000000  -0.5000000   0.0000000), wk =   0.7500000

     Dense  grid: 14390465 G-vectors     FFT dimensions: ( 320, 320, 320)

     Smooth grid:  5087701 G-vectors     FFT dimensions: ( 225, 225, 225)

     Estimated max dynamical RAM per process >    2052.00MB

     Estimated total allocated dynamical RAM >  172368.35MB
     Generating pointlists ...
     new r_m :   0.0238 (alat units)  1.1293 (a.u.) for type    1
     new r_m :   0.0238 (alat units)  1.1293 (a.u.) for type    2
     new r_m :   0.0238 (alat units)  1.1293 (a.u.) for type    3

     Check: negative/imaginary core charge=   -0.000001    0.000000

     Initial potential from superposition of free atoms
     Check: negative starting charge=(component1):   -0.001476
     Check: negative starting charge=(component2):   -0.001400

     starting charge  800.97114, renormalised to  800.00000

     negative rho (up, down):  1.474E-03 1.398E-03
     Starting wfc are  800 randomized atomic wfcs
     Checking if some PAW data can be deallocated... 
       node    0, deallocated PAW data for type:  2
       node    1, deallocated PAW data for type:  2
       node    2, deallocated PAW data for type:  2
       node    3, deallocated PAW data for type:  2
       node    4, deallocated PAW data for type:  2
       node    5, deallocated PAW data for type:  2
       node    6, deallocated PAW data for type:  2
       node    7, deallocated PAW data for type:  2
       node    8, deallocated PAW data for type:  2
       node    9, deallocated PAW data for type:  2
       node   10, deallocated PAW data for type:  2
       node   11, deallocated PAW data for type:  2
       node   12, deallocated PAW data for type:  2
       node   13, deallocated PAW data for type:  2
       node   14, deallocated PAW data for type:  2
       node   15, deallocated PAW data for type:  2
       node   16, deallocated PAW data for type:  2
       node   17, deallocated PAW data for type:  2
       node   18, deallocated PAW data for type:  2
       node   19, deallocated PAW data for type:  2
       node   20, deallocated PAW data for type:  2
       node   21, deallocated PAW data for type:  2
       node   22, deallocated PAW data for type:  2
       node   23, deallocated PAW data for type:  2
       node   24, deallocated PAW data for type:  2
       node   25, deallocated PAW data for type:  2
       node   26, deallocated PAW data for type:  2
       node   27, deallocated PAW data for type:  2
       node   28, deallocated PAW data for type:  2
       node   29, deallocated PAW data for type:  2
       node   30, deallocated PAW data for type:  2
       node   31, deallocated PAW data for type:  2
       node   32, deallocated PAW data for type:  2
       node   33, deallocated PAW data for type:  2
       node   34, deallocated PAW data for type:  2
       node   35, deallocated PAW data for type:  2
       node   36, deallocated PAW data for type:  2
       node   37, deallocated PAW data for type:  2
       node   38, deallocated PAW data for type:  2
       node   39, deallocated PAW data for type:  2
       node   40, deallocated PAW data for type:  2
       node   41, deallocated PAW data for type:  2
       node   42, deallocated PAW data for type:  2
       node   43, deallocated PAW data for type:  2
       node   44, deallocated PAW data for type:  2
       node   45, deallocated PAW data for type:  2
       node   46, deallocated PAW data for type:  2
       node   47, deallocated PAW data for type:  2
       node   48, deallocated PAW data for type:  2
       node   49, deallocated PAW data for type:  2
       node   50, deallocated PAW data for type:  2
       node   51, deallocated PAW data for type:  2
       node   52, deallocated PAW data for type:  2
       node   53, deallocated PAW data for type:  2
       node   54, deallocated PAW data for type:  2
       node   55, deallocated PAW data for type:  2
       node   56, deallocated PAW data for type:  2
       node   57, deallocated PAW data for type:  2
       node   58, deallocated PAW data for type:  2
       node   59, deallocated PAW data for type:  2
       node   60, deallocated PAW data for type:  2
       node   61, deallocated PAW data for type:  2
       node   62, deallocated PAW data for type:  2
       node   63, deallocated PAW data for type:  2
       node   64, deallocated PAW data for type:  2
       node   65, deallocated PAW data for type:  2
       node   66, deallocated PAW data for type:  2
       node   67, deallocated PAW data for type:  2
       node   68, deallocated PAW data for type:  2
       node   69, deallocated PAW data for type:  2
       node   70, deallocated PAW data for type:  2
       node   71, deallocated PAW data for type:  2
       node   72, deallocated PAW data for type:  2
       node   73, deallocated PAW data for type:  2
       node   74, deallocated PAW data for type:  2
       node   75, deallocated PAW data for type:  2
       node   76, deallocated PAW data for type:  2
       node   77, deallocated PAW data for type:  2
       node   78, deallocated PAW data for type:  2
       node   79, deallocated PAW data for type:  2
       node   80, deallocated PAW data for type:  2
       node   81, deallocated PAW data for type:  2
       node   82, deallocated PAW data for type:  2
       node   83, deallocated PAW data for type:  1

     total cpu time spent up to now is      123.2 secs

     per-process dynamical memory:  1073.5 Mb

     Self-consistent Calculation

     iteration #  1     ecut=    55.00 Ry     beta=0.30
     Davidson diagonalization with overlap
     ethr =  1.00E-02,  avg # of iterations =  3.0

     negative rho (up, down):  1.134E-03 1.211E-03

     total cpu time spent up to now is      343.3 secs

     total energy              =   -3186.41007838 Ry
     Harris-Foulkes estimate   =   -3201.79416053 Ry
     estimated scf accuracy    <      42.95043584 Ry

     total magnetization       =    -0.00 Bohr mag/cell
     absolute magnetization    =    16.87 Bohr mag/cell

     iteration #  2     ecut=    55.00 Ry     beta=0.30
     Davidson diagonalization with overlap
     ethr =  5.37E-03,  avg # of iterations =  2.0

     negative rho (up, down):  2.114E-03 2.243E-03

     total cpu time spent up to now is      487.1 secs

     total energy              =   -3187.83146242 Ry
     Harris-Foulkes estimate   =   -3190.21284155 Ry
     estimated scf accuracy    <       7.43477318 Ry

     total magnetization       =     0.00 Bohr mag/cell
     absolute magnetization    =    15.79 Bohr mag/cell

     iteration #  3     ecut=    55.00 Ry     beta=0.30
     Davidson diagonalization with overlap
     ethr =  9.29E-04,  avg # of iterations = 18.2

     negative rho (up, down):  3.116E-03 3.214E-03

     total cpu time spent up to now is      834.3 secs

     total energy              =   -3189.73867213 Ry
     Harris-Foulkes estimate   =   -3190.42521495 Ry
     estimated scf accuracy    <       1.90099238 Ry

     total magnetization       =     0.09 Bohr mag/cell
     absolute magnetization    =    11.18 Bohr mag/cell

     iteration #  4     ecut=    55.00 Ry     beta=0.30
     Davidson diagonalization with overlap
     ethr =  2.38E-04,  avg # of iterations = 15.0

     negative rho (up, down):  3.760E-03 3.846E-03

     total cpu time spent up to now is     1186.9 secs

     total energy              =   -3189.95156816 Ry
     Harris-Foulkes estimate   =   -3191.14941821 Ry
     estimated scf accuracy    <       2.94883834 Ry

     total magnetization       =     0.00 Bohr mag/cell
     absolute magnetization    =     6.58 Bohr mag/cell

     iteration #  5     ecut=    55.00 Ry     beta=0.30
     Davidson diagonalization with overlap
     ethr =  2.38E-04,  avg # of iterations =  3.0

     negative rho (up, down):  3.840E-03 3.968E-03

     total cpu time spent up to now is     1376.0 secs

     total energy              =   -3190.30304723 Ry
     Harris-Foulkes estimate   =   -3190.32835098 Ry
     estimated scf accuracy    <       0.15376606 Ry

     total magnetization       =    -0.15 Bohr mag/cell
     absolute magnetization    =     4.26 Bohr mag/cell

     iteration #  6     ecut=    55.00 Ry     beta=0.30
     Davidson diagonalization with overlap
     c_bands:  2 eigenvalues not converged
     c_bands:  2 eigenvalues not converged
     ethr =  1.92E-05,  avg # of iterations = 20.0

     negative rho (up, down):  4.392E-03 4.389E-03

     total cpu time spent up to now is     1760.1 secs

     total energy              =   -3190.36847884 Ry
     Harris-Foulkes estimate   =   -3190.35370942 Ry
     estimated scf accuracy    <       0.02277186 Ry

     total magnetization       =    -0.00 Bohr mag/cell
     absolute magnetization    =     4.20 Bohr mag/cell

     iteration #  7     ecut=    55.00 Ry     beta=0.30
     Davidson diagonalization with overlap
     c_bands:  2 eigenvalues not converged
     ethr =  2.85E-06,  avg # of iterations = 18.8

     negative rho (up, down):  4.465E-03 4.465E-03

     total cpu time spent up to now is     2159.9 secs

     total energy              =   -3190.37954320 Ry
     Harris-Foulkes estimate   =   -3190.37888835 Ry
     estimated scf accuracy    <       0.00451109 Ry

     total magnetization       =    -0.00 Bohr mag/cell
     absolute magnetization    =     2.01 Bohr mag/cell

     iteration #  8     ecut=    55.00 Ry     beta=0.30
     Davidson diagonalization with overlap
     ethr =  5.64E-07,  avg # of iterations =  9.5

     negative rho (up, down):  4.479E-03 4.499E-03

     total cpu time spent up to now is     2388.4 secs

     total energy              =   -3190.38156760 Ry
     Harris-Foulkes estimate   =   -3190.38046783 Ry
     estimated scf accuracy    <       0.00101971 Ry

     total magnetization       =    -0.00 Bohr mag/cell
     absolute magnetization    =     1.42 Bohr mag/cell

     iteration #  9     ecut=    55.00 Ry     beta=0.30
     Davidson diagonalization with overlap
     ethr =  1.27E-07,  avg # of iterations =  5.5

     negative rho (up, down):  4.503E-03 4.525E-03

     total cpu time spent up to now is     2696.4 secs

     total energy              =   -3190.38248365 Ry
     Harris-Foulkes estimate   =   -3190.38238555 Ry
     estimated scf accuracy    <       0.00088672 Ry

     total magnetization       =     0.00 Bohr mag/cell
     absolute magnetization    =     0.65 Bohr mag/cell

     iteration # 10     ecut=    55.00 Ry     beta=0.30
     Davidson diagonalization with overlap
     ethr =  1.11E-07,  avg # of iterations =  2.0

     negative rho (up, down):  4.526E-03 4.544E-03

     total cpu time spent up to now is     2902.4 secs

     total energy              =   -3190.38251770 Ry
     Harris-Foulkes estimate   =   -3190.38261830 Ry
     estimated scf accuracy    <       0.00026621 Ry

     total magnetization       =    -0.00 Bohr mag/cell
     absolute magnetization    =     0.32 Bohr mag/cell

     iteration # 11     ecut=    55.00 Ry     beta=0.30
     Davidson diagonalization with overlap
     ethr =  3.33E-08,  avg # of iterations =  3.0

     negative rho (up, down):  4.548E-03 4.561E-03

     total cpu time spent up to now is     3157.5 secs

     total energy              =   -3190.38263254 Ry
     Harris-Foulkes estimate   =   -3190.38263988 Ry
     estimated scf accuracy    <       0.00002950 Ry

     total magnetization       =    -0.00 Bohr mag/cell
     absolute magnetization    =     0.06 Bohr mag/cell

     iteration # 12     ecut=    55.00 Ry     beta=0.30
     Davidson diagonalization with overlap
     ethr =  3.69E-09,  avg # of iterations =  3.0

     negative rho (up, down):  4.564E-03 4.573E-03

     total cpu time spent up to now is     3359.7 secs

     total energy              =   -3190.38263905 Ry
     Harris-Foulkes estimate   =   -3190.38263933 Ry
     estimated scf accuracy    <       0.00000425 Ry

     total magnetization       =    -0.00 Bohr mag/cell
     absolute magnetization    =     0.02 Bohr mag/cell

     iteration # 13     ecut=    55.00 Ry     beta=0.30
     Davidson diagonalization with overlap
     ethr =  5.32E-10,  avg # of iterations =  3.0

     negative rho (up, down):  4.576E-03 4.582E-03

     total cpu time spent up to now is     3519.8 secs

     total energy              =   -3190.38263918 Ry
     Harris-Foulkes estimate   =   -3190.38263949 Ry
     estimated scf accuracy    <       0.00000187 Ry

     total magnetization       =     0.00 Bohr mag/cell
     absolute magnetization    =     0.01 Bohr mag/cell

     iteration # 14     ecut=    55.00 Ry     beta=0.30
     Davidson diagonalization with overlap
     ethr =  2.33E-10,  avg # of iterations =  2.5

     negative rho (up, down):  4.584E-03 4.588E-03

     total cpu time spent up to now is     3716.7 secs

     total energy              =   -3190.38263939 Ry
     Harris-Foulkes estimate   =   -3190.38263948 Ry
     estimated scf accuracy    <       0.00000036 Ry

     total magnetization       =    -0.00 Bohr mag/cell
     absolute magnetization    =     0.00 Bohr mag/cell

     iteration # 15     ecut=    55.00 Ry     beta=0.30
     Davidson diagonalization with overlap
     ethr =  4.49E-11,  avg # of iterations =  3.0

     negative rho (up, down):  4.590E-03 4.593E-03

     total cpu time spent up to now is     3932.4 secs

     total energy              =   -3190.38263951 Ry
     Harris-Foulkes estimate   =   -3190.38263950 Ry
     estimated scf accuracy    <       0.00000001 Ry

     total magnetization       =     0.00 Bohr mag/cell
     absolute magnetization    =     0.00 Bohr mag/cell

     iteration # 16     ecut=    55.00 Ry     beta=0.30
     Davidson diagonalization with overlap
     ethr =  1.26E-12,  avg # of iterations =  4.0

     negative rho (up, down):  4.594E-03 4.596E-03

     total cpu time spent up to now is     4193.9 secs

     total energy              =   -3190.38263952 Ry
     Harris-Foulkes estimate   =   -3190.38263952 Ry
     estimated scf accuracy    <          3.1E-09 Ry

     total magnetization       =     0.00 Bohr mag/cell
     absolute magnetization    =     0.00 Bohr mag/cell

     iteration # 17     ecut=    55.00 Ry     beta=0.30
     Davidson diagonalization with overlap
     ethr =  3.89E-13,  avg # of iterations =  3.5

     negative rho (up, down):  4.604E-03 4.604E-03
 
     Magnetic moment per site:
     atom:    1    charge:    2.8349    magn:   -0.0000    constr:    0.0000
     atom:    2    charge:    0.8827    magn:    0.0000    constr:    0.0000
     atom:    3    charge:    2.8349    magn:   -0.0000    constr:    0.0000
     atom:    4    charge:    0.8813    magn:   -0.0000    constr:    0.0000
     atom:    5    charge:    2.8685    magn:    0.0000    constr:    0.0000
     atom:    6    charge:    0.8817    magn:   -0.0000    constr:    0.0000
     atom:    7    charge:    2.8696    magn:    0.0000    constr:    0.0000
     atom:    8    charge:    0.8818    magn:   -0.0000    constr:    0.0000
     atom:    9    charge:    2.8698    magn:    0.0000    constr:    0.0000
     atom:   10    charge:    0.8819    magn:    0.0000    constr:    0.0000
     atom:   11    charge:    2.8699    magn:   -0.0000    constr:    0.0000
     atom:   12    charge:    0.8818    magn:   -0.0000    constr:    0.0000
     atom:   13    charge:    2.8699    magn:   -0.0000    constr:    0.0000
     atom:   14    charge:    0.8817    magn:   -0.0000    constr:    0.0000
     atom:   15    charge:    2.8698    magn:    0.0000    constr:    0.0000
     atom:   16    charge:    0.8813    magn:   -0.0000    constr:    0.0000
     atom:   17    charge:    2.8696    magn:    0.0000    constr:    0.0000
     atom:   18    charge:    0.8827    magn:    0.0000    constr:    0.0000
     atom:   19    charge:    2.8685    magn:    0.0000    constr:    0.0000
     atom:   20    charge:    0.8827    magn:    0.0000    constr:    0.0000
     atom:   21    charge:    2.8685    magn:    0.0000    constr:    0.0000
     atom:   22    charge:    0.8827    magn:    0.0000    constr:    0.0000
     atom:   23    charge:    2.8672    magn:   -0.0000    constr:    0.0000
     atom:   24    charge:    0.8821    magn:   -0.0000    constr:    0.0000
     atom:   25    charge:    2.8685    magn:    0.0000    constr:    0.0000
     atom:   26    charge:    0.8818    magn:   -0.0000    constr:    0.0000
     atom:   27    charge:    2.8695    magn:    0.0000    constr:    0.0000
     atom:   28    charge:    0.8818    magn:   -0.0000    constr:    0.0000
     atom:   29    charge:    2.8698    magn:    0.0000    constr:    0.0000
     atom:   30    charge:    0.8819    magn:   -0.0000    constr:    0.0000
     atom:   31    charge:    2.8699    magn:    0.0000    constr:    0.0000
     atom:   32    charge:    0.8819    magn:   -0.0000    constr:    0.0000
     atom:   33    charge:    2.8699    magn:    0.0000    constr:    0.0000
     atom:   34    charge:    0.8818    magn:   -0.0000    constr:    0.0000
     atom:   35    charge:    2.8699    magn:    0.0000    constr:    0.0000
     atom:   36    charge:    0.8818    magn:   -0.0000    constr:    0.0000
     atom:   37    charge:    2.8698    magn:    0.0000    constr:    0.0000
     atom:   38    charge:    0.8821    magn:   -0.0000    constr:    0.0000
     atom:   39    charge:    2.8695    magn:    0.0000    constr:    0.0000
     atom:   40    charge:    0.8813    magn:   -0.0000    constr:    0.0000
     atom:   41    charge:    2.8696    magn:    0.0000    constr:    0.0000
     atom:   42    charge:    0.8815    magn:   -0.0000    constr:    0.0000
     atom:   43    charge:    2.8692    magn:    0.0000    constr:    0.0000
     atom:   44    charge:    0.8813    magn:   -0.0000    constr:    0.0000
     atom:   45    charge:    2.8692    magn:    0.0000    constr:    0.0000
     atom:   46    charge:    0.8818    magn:   -0.0000    constr:    0.0000
     atom:   47    charge:    2.8696    magn:    0.0000    constr:    0.0000
     atom:   48    charge:    0.8818    magn:   -0.0000    constr:    0.0000
     atom:   49    charge:    2.8698    magn:    0.0000    constr:    0.0000
     atom:   50    charge:    0.8819    magn:   -0.0000    constr:    0.0000
     atom:   51    charge:    2.8699    magn:    0.0000    constr:    0.0000
     atom:   52    charge:    0.8819    magn:   -0.0000    constr:    0.0000
     atom:   53    charge:    2.8699    magn:   -0.0000    constr:    0.0000
     atom:   54    charge:    0.8819    magn:   -0.0000    constr:    0.0000
     atom:   55    charge:    2.8699    magn:   -0.0000    constr:    0.0000
     atom:   56    charge:    0.8818    magn:   -0.0000    constr:    0.0000
     atom:   57    charge:    2.8699    magn:    0.0000    constr:    0.0000
     atom:   58    charge:    0.8818    magn:   -0.0000    constr:    0.0000
     atom:   59    charge:    2.8698    magn:    0.0000    constr:    0.0000
     atom:   60    charge:    0.8817    magn:   -0.0000    constr:    0.0000
     atom:   61    charge:    2.8698    magn:    0.0000    constr:    0.0000
     atom:   62    charge:    0.8818    magn:    0.0000    constr:    0.0000
     atom:   63    charge:    2.8697    magn:    0.0000    constr:    0.0000
     atom:   64    charge:    0.8818    magn:    0.0000    constr:    0.0000
     atom:   65    charge:    2.8696    magn:   -0.0000    constr:    0.0000
     atom:   66    charge:    0.8817    magn:   -0.0000    constr:    0.0000
     atom:   67    charge:    2.8697    magn:    0.0000    constr:    0.0000
     atom:   68    charge:    0.8818    magn:   -0.0000    constr:    0.0000
     atom:   69    charge:    2.8698    magn:    0.0000    constr:    0.0000
     atom:   70    charge:    0.8819    magn:   -0.0000    constr:    0.0000
     atom:   71    charge:    2.8699    magn:    0.0000    constr:    0.0000
     atom:   72    charge:    0.8819    magn:   -0.0000    constr:    0.0000
     atom:   73    charge:    2.8699    magn:   -0.0000    constr:    0.0000
     atom:   74    charge:    0.8819    magn:   -0.0000    constr:    0.0000
     atom:   75    charge:    2.8699    magn:    0.0000    constr:    0.0000
     atom:   76    charge:    0.8819    magn:   -0.0000    constr:    0.0000
     atom:   77    charge:    2.8699    magn:   -0.0000    constr:    0.0000
     atom:   78    charge:    0.8818    magn:   -0.0000    constr:    0.0000
     atom:   79    charge:    2.8699    magn:    0.0000    constr:    0.0000
     atom:   80    charge:    0.8818    magn:   -0.0000    constr:    0.0000
     atom:   81    charge:    2.8699    magn:   -0.0000    constr:    0.0000
     atom:   82    charge:    0.8818    magn:   -0.0000    constr:    0.0000
     atom:   83    charge:    2.8698    magn:   -0.0000    constr:    0.0000
     atom:   84    charge:    0.8818    magn:   -0.0000    constr:    0.0000
     atom:   85    charge:    2.8698    magn:    0.0000    constr:    0.0000
     atom:   86    charge:    0.8818    magn:   -0.0000    constr:    0.0000
     atom:   87    charge:    2.8698    magn:    0.0000    constr:    0.0000
     atom:   88    charge:    0.8818    magn:   -0.0000    constr:    0.0000
     atom:   89    charge:    2.8698    magn:   -0.0000    constr:    0.0000
     atom:   90    charge:    0.8819    magn:   -0.0000    constr:    0.0000
     atom:   91    charge:    2.8699    magn:   -0.0000    constr:    0.0000
     atom:   92    charge:    0.8819    magn:   -0.0000    constr:    0.0000
     atom:   93    charge:    2.8699    magn:    0.0000    constr:    0.0000
     atom:   94    charge:    0.8819    magn:   -0.0000    constr:    0.0000
     atom:   95    charge:    2.8699    magn:   -0.0000    constr:    0.0000
     atom:   96    charge:    0.8819    magn:   -0.0000    constr:    0.0000
     atom:   97    charge:    2.8699    magn:   -0.0000    constr:    0.0000
     atom:   98    charge:    0.8819    magn:   -0.0000    constr:    0.0000
     atom:   99    charge:    2.8699    magn:    0.0000    constr:    0.0000
     atom:  100    charge:    0.8819    magn:    0.0000    constr:    0.0000
     atom:  101    charge:    2.8699    magn:   -0.0000    constr:    0.0000
     atom:  102    charge:    0.8819    magn:    0.0000    constr:    0.0000
     atom:  103    charge:    2.8699    magn:   -0.0000    constr:    0.0000
     atom:  104    charge:    0.8819    magn:    0.0000    constr:    0.0000
     atom:  105    charge:    2.8698    magn:   -0.0000    constr:    0.0000
     atom:  106    charge:    0.8819    magn:    0.0000    constr:    0.0000
     atom:  107    charge:    2.8698    magn:    0.0000    constr:    0.0000
     atom:  108    charge:    0.8819    magn:    0.0000    constr:    0.0000
     atom:  109    charge:    2.8698    magn:   -0.0000    constr:    0.0000
     atom:  110    charge:    0.8819    magn:    0.0000    constr:    0.0000
     atom:  111    charge:    2.8699    magn:   -0.0000    constr:    0.0000
     atom:  112    charge:    0.8819    magn:   -0.0000    constr:    0.0000
     atom:  113    charge:    2.8699    magn:   -0.0000    constr:    0.0000
     atom:  114    charge:    0.8819    magn:   -0.0000    constr:    0.0000
     atom:  115    charge:    2.8699    magn:    0.0000    constr:    0.0000
     atom:  116    charge:    0.8819    magn:   -0.0000    constr:    0.0000
     atom:  117    charge:    2.8699    magn:    0.0000    constr:    0.0000
     atom:  118    charge:    0.8819    magn:   -0.0000    constr:    0.0000
     atom:  119    charge:    2.8699    magn:    0.0000    constr:    0.0000
     atom:  120    charge:    0.8818    magn:   -0.0000    constr:    0.0000
     atom:  121    charge:    2.8698    magn:    0.0000    constr:    0.0000
     atom:  122    charge:    0.8819    magn:    0.0000    constr:    0.0000
     atom:  123    charge:    2.8698    magn:   -0.0000    constr:    0.0000
     atom:  124    charge:    0.8819    magn:    0.0000    constr:    0.0000
     atom:  125    charge:    2.8698    magn:   -0.0000    constr:    0.0000
     atom:  126    charge:    0.8819    magn:   -0.0000    constr:    0.0000
     atom:  127    charge:    2.8698    magn:   -0.0000    constr:    0.0000
     atom:  128    charge:    0.8819    magn:    0.0000    constr:    0.0000
     atom:  129    charge:    2.8698    magn:   -0.0000    constr:    0.0000
     atom:  130    charge:    0.8819    magn:    0.0000    constr:    0.0000
     atom:  131    charge:    2.8698    magn:   -0.0000    constr:    0.0000
     atom:  132    charge:    0.8818    magn:   -0.0000    constr:    0.0000
     atom:  133    charge:    2.8698    magn:   -0.0000    constr:    0.0000
     atom:  134    charge:    0.8818    magn:   -0.0000    constr:    0.0000
     atom:  135    charge:    2.8698    magn:    0.0000    constr:    0.0000
     atom:  136    charge:    0.8818    magn:   -0.0000    constr:    0.0000
     atom:  137    charge:    2.8698    magn:    0.0000    constr:    0.0000
     atom:  138    charge:    0.8818    magn:   -0.0000    constr:    0.0000
     atom:  139    charge:    2.8698    magn:    0.0000    constr:    0.0000
     atom:  140    charge:    0.8817    magn:   -0.0000    constr:    0.0000
     atom:  141    charge:    2.8696    magn:    0.0000    constr:    0.0000
     atom:  142    charge:    0.8818    magn:   -0.0000    constr:    0.0000
     atom:  143    charge:    2.8697    magn:    0.0000    constr:    0.0000
     atom:  144    charge:    0.8819    magn:    0.0000    constr:    0.0000
     atom:  145    charge:    2.8698    magn:    0.0000    constr:    0.0000
     atom:  146    charge:    0.8819    magn:   -0.0000    constr:    0.0000
     atom:  147    charge:    2.8698    magn:    0.0000    constr:    0.0000
     atom:  148    charge:    0.8819    magn:   -0.0000    constr:    0.0000
     atom:  149    charge:    2.8698    magn:   -0.0000    constr:    0.0000
     atom:  150    charge:    0.8819    magn:    0.0000    constr:    0.0000
     atom:  151    charge:    2.8698    magn:    0.0000    constr:    0.0000
     atom:  152    charge:    0.8818    magn:   -0.0000    constr:    0.0000
     atom:  153    charge:    2.8698    magn:    0.0000    constr:    0.0000
     atom:  154    charge:    0.8817    magn:   -0.0000    constr:    0.0000
     atom:  155    charge:    2.8697    magn:    0.0000    constr:    0.0000
     atom:  156    charge:    0.8818    magn:   -0.0000    constr:    0.0000
     atom:  157    charge:    2.8696    magn:    0.0000    constr:    0.0000
     atom:  158    charge:    0.8818    magn:   -0.0000    constr:    0.0000
     atom:  159    charge:    2.8695    magn:    0.0000    constr:    0.0000
     atom:  160    charge:    0.8813    magn:   -0.0000    constr:    0.0000
     atom:  161    charge:    2.8685    magn:    0.0000    constr:    0.0000
     atom:  162    charge:    0.8818    magn:    0.0000    constr:    0.0000
     atom:  163    charge:    2.8692    magn:    0.0000    constr:    0.0000
     atom:  164    charge:    0.8818    magn:   -0.0000    constr:    0.0000
     atom:  165    charge:    2.8696    magn:   -0.0000    constr:    0.0000
     atom:  166    charge:    0.8819    magn:    0.0000    constr:    0.0000
     atom:  167    charge:    2.8698    magn:    0.0000    constr:    0.0000
     atom:  168    charge:    0.8819    magn:    0.0000    constr:    0.0000
     atom:  169    charge:    2.8698    magn:   -0.0000    constr:    0.0000
     atom:  170    charge:    0.8819    magn:    0.0000    constr:    0.0000
     atom:  171    charge:    2.8698    magn:   -0.0000    constr:    0.0000
     atom:  172    charge:    0.8818    magn:   -0.0000    constr:    0.0000
     atom:  173    charge:    2.8698    magn:    0.0000    constr:    0.0000
     atom:  174    charge:    0.8818    magn:    0.0000    constr:    0.0000
     atom:  175    charge:    2.8696    magn:   -0.0000    constr:    0.0000
     atom:  176    charge:    0.8813    magn:   -0.0000    constr:    0.0000
     atom:  177    charge:    2.8692    magn:    0.0000    constr:    0.0000
     atom:  178    charge:    0.8821    magn:   -0.0000    constr:    0.0000
     atom:  179    charge:    2.8685    magn:    0.0000    constr:    0.0000
     atom:  180    charge:    0.8827    magn:    0.0000    constr:    0.0000
     atom:  181    charge:    2.8349    magn:   -0.0000    constr:    0.0000
     atom:  182    charge:    0.8815    magn:   -0.0000    constr:    0.0000
     atom:  183    charge:    2.8672    magn:   -0.0000    constr:    0.0000
     atom:  184    charge:    0.8818    magn:    0.0000    constr:    0.0000
     atom:  185    charge:    2.8692    magn:    0.0000    constr:    0.0000
     atom:  186    charge:    0.8818    magn:   -0.0000    constr:    0.0000
     atom:  187    charge:    2.8697    magn:    0.0000    constr:    0.0000
     atom:  188    charge:    0.8819    magn:    0.0000    constr:    0.0000
     atom:  189    charge:    2.8698    magn:   -0.0000    constr:    0.0000
     atom:  190    charge:    0.8819    magn:    0.0000    constr:    0.0000
     atom:  191    charge:    2.8699    magn:   -0.0000    constr:    0.0000
     atom:  192    charge:    0.8818    magn:   -0.0000    constr:    0.0000
     atom:  193    charge:    2.8698    magn:   -0.0000    constr:    0.0000
     atom:  194    charge:    0.8818    magn:    0.0000    constr:    0.0000
     atom:  195    charge:    2.8697    magn:    0.0000    constr:    0.0000
     atom:  196    charge:    0.8815    magn:   -0.0000    constr:    0.0000
     atom:  197    charge:    2.8692    magn:    0.0000    constr:    0.0000
     atom:  198    charge:    0.8827    magn:    0.0000    constr:    0.0000
     atom:  199    charge:    2.8672    magn:   -0.0000    constr:    0.0000
     atom:  200    charge:    1.6103    magn:    0.0000    constr:    0.0000

     total cpu time spent up to now is     4383.4 secs

     End of self-consistent calculation

 ------ SPIN UP ------------


          k = 0.0000 0.0000 0.0000 (635349 PWs)   bands (ev):

   -25.2364 -23.1923 -23.1923 -22.6739 -22.4017 -22.4017 -22.3227 -22.3227
   -22.2464 -22.1468 -22.0514 -22.0514 -21.9814 -21.8710 -21.8710 -21.8358
   -21.7811 -21.7583 -21.7583 -21.6423 -21.6423 -21.5801 -21.4731 -21.4731
   -21.4248 -21.2901 -21.2218 -21.2218 -21.1746 -21.1746 -21.1169 -21.1124
   -21.1124 -21.0059 -20.9126 -20.9034 -20.9034 -20.8318 -20.8318 -20.7277
   -20.6701 -20.6701 -20.6531 -20.5292 -20.4502 -20.4502 -20.3533 -20.3533
   -20.3209 -20.2795 -20.2795 -20.2711 -20.2185 -20.2185 -20.1998 -20.1380
   -20.1380 -20.0668 -20.0176 -20.0176 -19.9075 -19.9036 -19.9036 -19.8244
   -19.8119 -19.8119 -19.7940 -19.6485 -19.6268 -19.6268 -19.6234 -19.5452
   -19.5452 -19.4811 -19.4811 -19.4493 -19.4182 -19.4182 -19.3961 -19.3290
   -19.3275 -19.3268 -19.3268 -19.3093 -19.3093 -19.2954 -19.2954 -19.2792
   -19.2768 -19.2768 -19.0692 -19.0692 -19.0652 -19.0644 -18.9124 -18.9124
   -18.8258 -18.8253 -18.8228 -18.8228 -16.7239 -15.0111 -15.0111 -14.0534
   -14.0534 -13.9874 -13.7193 -13.6943 -13.6943 -13.6100 -13.6100 -13.4925
   -13.3814 -13.3814 -13.3606 -13.3606 -13.3510 -13.3050 -13.3028 -13.2327
   -13.2327 -13.1277 -13.1202 -13.1202 -13.0384 -13.0384 -12.9638 -12.9498
   -12.9498 -12.9497 -12.9370 -12.9370 -12.9035 -12.7602 -12.7602 -12.6860
   -12.6804 -12.6699 -12.6699 -12.6337 -12.6205 -12.6097 -12.6097 -12.5904
   -12.5904 -12.3408 -12.3408 -12.3341 -12.2666 -12.1767 -12.1767 -12.1357
   -12.0668 -12.0620 -12.0416 -12.0416 -12.0212 -12.0212 -12.0051 -11.9122
   -11.9122 -11.7735 -11.6290 -11.6290 -11.5610 -11.5610 -11.4522 -11.4294
   -11.4294 -11.4153 -11.3007 -11.3007 -11.2694 -11.1927 -11.1446 -11.1446
   -11.1187 -11.1026 -11.1026 -11.0421 -10.9548 -10.9548 -10.7492 -10.7492
   -10.6689 -10.6689 -10.6309 -10.6044 -10.4895 -10.4895 -10.4522 -10.4302
   -10.4238 -10.4238 -10.3846 -10.3846 -10.3360 -10.2946 -10.2946 -10.2890
   -10.2890 -10.2243 -10.1363 -10.1140 -10.1140 -10.0757 -10.0530 -10.0303
   -10.0303 -10.0014 -10.0014  -9.9864  -9.8045  -9.8045  -9.7921  -9.7921
    -9.7369  -9.7296  -9.7117  -9.7117  -9.7000  -9.6464  -9.6155  -9.6155
    -9.6027  -9.5993  -9.5993  -9.5364  -9.5101  -9.5101  -9.4164  -9.4164
    -9.4123  -9.4083  -9.4083  -9.3352  -9.3281  -9.3281  -9.2302  -9.2161
    -9.2161  -9.1968  -9.1205  -9.1074  -9.1074  -9.0835  -9.0835  -9.0808
    -9.0733  -9.0609  -9.0597  -9.0597  -9.0570  -9.0570  -9.0530  -9.0530
    -9.0355  -8.9930  -8.9930  -8.9926  -8.9700  -8.9700  -8.9166  -8.8049
    -8.7635  -8.7635  -8.7433  -8.7431  -8.7431  -8.7115  -8.7115  -8.7087
    -8.6702  -8.6702  -8.6612  -8.5810  -8.5810  -8.5465  -8.5465  -8.5279
    -8.4560  -8.4039  -8.3531  -8.3361  -8.3361  -8.3225  -8.3225  -8.3116
    -8.3116  -8.2868  -8.2585  -8.2585  -8.2359  -8.2177  -8.2177  -8.2138
    -8.2138  -8.2088  -8.1680  -8.1379  -8.1130  -8.1130  -8.0902  -8.0902
    -8.0823  -8.0245  -8.0245  -8.0135  -7.9148  -7.9148  -7.9130  -7.7608
    -7.7608  -7.6775  -7.6775  -7.6448  -7.6111  -7.5068  -7.5068  -7.4407
    -7.4397  -7.4397  -7.3898  -7.3222  -7.2959  -7.2959  -7.2647  -7.2647
    -7.2189  -7.1919  -7.1919  -7.1893  -7.1503  -7.1503  -7.1168  -7.0970
    -7.0970  -7.0555  -7.0526  -7.0226  -7.0226  -6.9823  -6.9823  -6.9760
    -6.9760  -6.9724  -6.8848  -6.7459  -6.7459  -6.6957  -6.6425  -6.6305
    -6.6305  -6.5242  -6.5196  -6.5196  -6.5024  -6.5024  -6.4950  -6.4950
    -6.4790  -6.2993  -6.2615  -6.2279  -6.2279  -6.1635  -6.1635  -6.0712
    -6.0712  -6.0612  -6.0027  -5.9337  -5.9337  -5.8926  -5.8926  -5.8562
    -5.8051  -5.8051  -5.8005  -5.7102  -5.7102  -5.7093  -5.7034  -5.6952
    -5.6952  -5.6334  -5.6334  -5.6314  -5.5080  -5.5080  -5.2629  -5.2585
    -5.2536  -5.2536  -5.0503  -5.0503  -4.9329  -4.9307  -4.9245  -4.9245
    -3.2433  -0.9193  -0.7522  -0.7522  -0.5120  -0.3753  -0.3356  -0.3356
    -0.1207  -0.1207  -0.0092   0.0270   0.0270   0.0643   0.0786   0.0786
     0.0865   0.0865   0.1391   0.1520   0.1520   0.1874   0.2186   0.2267
     0.2304   0.2304   0.2450   0.2450   0.2943   0.2943   0.3145   0.3434
     0.3434   0.4303   0.4949   0.6058   0.6058   0.6143   0.6304   0.6304
     0.6306   0.7135   0.7784   0.7784   0.8576   0.8578   0.8578   0.8656
     0.8662   0.8662   0.8691   0.8691   0.8736   0.9007   0.9007   0.9187
     0.9224   0.9224   0.9259   1.0553   1.0553   1.0600   1.1910   1.2137
     1.2137   1.2289   1.2402   1.2402   1.2442   1.2442   1.3081   1.3259
     1.3898   1.4857   1.5359   1.5360   1.6540   1.6540   1.6572   1.7159

     occupation numbers 
     1.0000   1.0000   1.0000   1.0000   1.0000   1.0000   1.0000   1.0000
     1.0000   1.0000   1.0000   1.0000   1.0000   1.0000   1.0000   1.0000
     1.0000   1.0000   1.0000   1.0000   1.0000   1.0000   1.0000   1.0000
     1.0000   1.0000   1.0000   1.0000   1.0000   1.0000   1.0000   1.0000
     1.0000   1.0000   1.0000   1.0000   1.0000   1.0000   1.0000   1.0000
     1.0000   1.0000   1.0000   1.0000   1.0000   1.0000   1.0000   1.0000
     1.0000   1.0000   1.0000   1.0000   1.0000   1.0000   1.0000   1.0000
     1.0000   1.0000   1.0000   1.0000   1.0000   1.0000   1.0000   1.0000
     1.0000   1.0000   1.0000   1.0000   1.0000   1.0000   1.0000   1.0000
     1.0000   1.0000   1.0000   1.0000   1.0000   1.0000   1.0000   1.0000
     1.0000   1.0000   1.0000   1.0000   1.0000   1.0000   1.0000   1.0000
     1.0000   1.0000   1.0000   1.0000   1.0000   1.0000   1.0000   1.0000
     1.0000   1.0000   1.0000   1.0000   1.0000   1.0000   1.0000   1.0000
     1.0000   1.0000   1.0000   1.0000   1.0000   1.0000   1.0000   1.0000
     1.0000   1.0000   1.0000   1.0000   1.0000   1.0000   1.0000   1.0000
     1.0000   1.0000   1.0000   1.0000   1.0000   1.0000   1.0000   1.0000
     1.0000   1.0000   1.0000   1.0000   1.0000   1.0000   1.0000   1.0000
     1.0000   1.0000   1.0000   1.0000   1.0000   1.0000   1.0000   1.0000
     1.0000   1.0000   1.0000   1.0000   1.0000   1.0000   1.0000   1.0000
     1.0000   1.0000   1.0000   1.0000   1.0000   1.0000   1.0000   1.0000
     1.0000   1.0000   1.0000   1.0000   1.0000   1.0000   1.0000   1.0000
     1.0000   1.0000   1.0000   1.0000   1.0000   1.0000   1.0000   1.0000
     1.0000   1.0000   1.0000   1.0000   1.0000   1.0000   1.0000   1.0000
     1.0000   1.0000   1.0000   1.0000   1.0000   1.0000   1.0000   1.0000
     1.0000   1.0000   1.0000   1.0000   1.0000   1.0000   1.0000   1.0000
     1.0000   1.0000   1.0000   1.0000   1.0000   1.0000   1.0000   1.0000
     1.0000   1.0000   1.0000   1.0000   1.0000   1.0000   1.0000   1.0000
     1.0000   1.0000   1.0000   1.0000   1.0000   1.0000   1.0000   1.0000
     1.0000   1.0000   1.0000   1.0000   1.0000   1.0000   1.0000   1.0000
     1.0000   1.0000   1.0000   1.0000   1.0000   1.0000   1.0000   1.0000
     1.0000   1.0000   1.0000   1.0000   1.0000   1.0000   1.0000   1.0000
     1.0000   1.0000   1.0000   1.0000   1.0000   1.0000   1.0000   1.0000
     1.0000   1.0000   1.0000   1.0000   1.0000   1.0000   1.0000   1.0000
     1.0000   1.0000   1.0000   1.0000   1.0000   1.0000   1.0000   1.0000
     1.0000   1.0000   1.0000   1.0000   1.0000   1.0000   1.0000   1.0000
     1.0000   1.0000   1.0000   1.0000   1.0000   1.0000   1.0000   1.0000
     1.0000   1.0000   1.0000   1.0000   1.0000   1.0000   1.0000   1.0000
     1.0000   1.0000   1.0000   1.0000   1.0000   1.0000   1.0000   1.0000
     1.0000   1.0000   1.0000   1.0000   1.0000   1.0000   1.0000   1.0000
     1.0000   1.0000   1.0000   1.0000   1.0000   1.0000   1.0000   1.0000
     1.0000   1.0000   1.0000   1.0000   1.0000   1.0000   1.0000   1.0000
     1.0000   1.0000   1.0000   1.0000   1.0000   1.0000   1.0000   1.0000
     1.0000   1.0000   1.0000   1.0000   1.0000   1.0000   1.0000   1.0000
     1.0000   1.0000   1.0000   1.0000   1.0000   1.0000   1.0000   1.0000
     1.0000   1.0000   1.0000   1.0000   1.0000   1.0000   1.0000   1.0000
     1.0000   1.0000   1.0000   1.0000   1.0000   1.0000   1.0000   1.0000
     1.0000   1.0000   1.0000   1.0000   1.0000   1.0000   1.0000   1.0000
     1.0000   1.0000   1.0000   1.0000   1.0000   1.0000   1.0000   1.0000
     1.0000   1.0000   1.0000   1.0000   1.0000   1.0000   1.0000   1.0000
     1.0000   1.0000   1.0000   1.0000   1.0000   1.0000   1.0000   1.0000
     0.0000   0.0000   0.0000   0.0000   0.0000   0.0000   0.0000   0.0000
     0.0000   0.0000   0.0000   0.0000   0.0000   0.0000   0.0000   0.0000
     0.0000   0.0000   0.0000   0.0000   0.0000   0.0000   0.0000   0.0000
     0.0000   0.0000   0.0000   0.0000   0.0000   0.0000   0.0000   0.0000
     0.0000   0.0000   0.0000   0.0000   0.0000   0.0000   0.0000   0.0000
     0.0000   0.0000   0.0000   0.0000   0.0000   0.0000   0.0000   0.0000
     0.0000   0.0000   0.0000   0.0000   0.0000   0.0000   0.0000   0.0000
     0.0000   0.0000   0.0000   0.0000   0.0000   0.0000   0.0000   0.0000
     0.0000   0.0000   0.0000   0.0000   0.0000   0.0000   0.0000   0.0000
     0.0000   0.0000   0.0000   0.0000   0.0000   0.0000   0.0000   0.0000

          k = 0.0000-0.5774 0.0000 (635996 PWs)   bands (ev):

   -25.2364 -23.1923 -23.1923 -22.6710 -22.4202 -22.4027 -22.3453 -22.3148
   -22.1676 -22.1141 -22.1017 -22.0305 -22.0237 -21.9327 -21.8947 -21.8555
   -21.8010 -21.7394 -21.6639 -21.6522 -21.5527 -21.5252 -21.4920 -21.4746
   -21.4468 -21.3619 -21.2990 -21.2828 -21.2054 -21.1618 -21.1356 -21.0736
   -21.0411 -21.0232 -20.9076 -20.8775 -20.8521 -20.7914 -20.7438 -20.7294
   -20.6828 -20.6344 -20.6211 -20.5943 -20.5662 -20.4483 -20.4410 -20.4162
   -20.3826 -20.3642 -20.2703 -20.2681 -20.1875 -20.1719 -20.1351 -20.1165
   -20.0920 -20.0081 -19.9619 -19.9462 -19.9280 -19.9053 -19.8510 -19.8149
   -19.8022 -19.7758 -19.7625 -19.7450 -19.6658 -19.6526 -19.6028 -19.6006
   -19.5919 -19.5763 -19.5751 -19.4589 -19.4556 -19.4332 -19.3678 -19.3601
   -19.3392 -19.3318 -19.3290 -19.3206 -19.2949 -19.2903 -19.1989 -19.1822
   -19.1560 -19.1530 -19.0950 -19.0915 -19.0457 -19.0453 -19.0175 -19.0173
   -18.8574 -18.8574 -18.7704 -18.7701 -16.7239 -15.0111 -15.0111 -14.0532
   -14.0499 -13.9985 -13.7290 -13.7009 -13.6569 -13.6022 -13.5957 -13.5089
   -13.4430 -13.4415 -13.3837 -13.3741 -13.2499 -13.2461 -13.2450 -13.2366
   -13.2210 -13.1984 -13.1146 -13.1120 -13.0725 -13.0572 -12.9594 -12.9588
   -12.9558 -12.9050 -12.8842 -12.8495 -12.8394 -12.8178 -12.8131 -12.8093
   -12.7415 -12.7342 -12.6732 -12.6580 -12.5950 -12.5844 -12.4916 -12.4845
   -12.4534 -12.4485 -12.4382 -12.4330 -12.2907 -12.2864 -12.2752 -12.1380
   -12.1374 -12.0595 -12.0464 -12.0303 -11.9901 -11.9375 -11.8118 -11.7761
   -11.7735 -11.6795 -11.6487 -11.6353 -11.6251 -11.5691 -11.5367 -11.5013
   -11.5010 -11.3685 -11.3220 -11.2954 -11.2561 -11.2225 -11.2019 -11.1626
   -11.1212 -11.0615 -10.9683 -10.9667 -10.9412 -10.8256 -10.7911 -10.7537
   -10.7501 -10.7324 -10.6794 -10.6552 -10.6490 -10.6080 -10.5868 -10.5687
   -10.5656 -10.4356 -10.3664 -10.2979 -10.2954 -10.2894 -10.2529 -10.2469
   -10.2197 -10.1272 -10.0733 -10.0705 -10.0527 -10.0425 -10.0230 -10.0104
[...]
     0.0000   0.0000   0.0000   0.0000   0.0000   0.0000   0.0000   0.0000
     0.0000   0.0000   0.0000   0.0000   0.0000   0.0000   0.0000   0.0000
     0.0000   0.0000   0.0000   0.0000   0.0000   0.0000   0.0000   0.0000
     0.0000   0.0000   0.0000   0.0000   0.0000   0.0000   0.0000   0.0000
     0.0000   0.0000   0.0000   0.0000   0.0000   0.0000   0.0000   0.0000
     0.0000   0.0000   0.0000   0.0000   0.0000   0.0000   0.0000   0.0000
     0.0000   0.0000   0.0000   0.0000   0.0000   0.0000   0.0000   0.0000
     0.0000   0.0000   0.0000   0.0000   0.0000   0.0000   0.0000   0.0000
     0.0000   0.0000   0.0000   0.0000   0.0000   0.0000   0.0000   0.0000

 ------ SPIN DOWN ----------


          k = 0.0000 0.0000 0.0000 (635349 PWs)   bands (ev):

   -25.2363 -23.1923 -23.1923 -22.6739 -22.4017 -22.4017 -22.3227 -22.3227
   -22.2464 -22.1468 -22.0514 -22.0514 -21.9814 -21.8710 -21.8710 -21.8358
   -21.7811 -21.7583 -21.7583 -21.6423 -21.6423 -21.5801 -21.4731 -21.4731
   -21.4248 -21.2901 -21.2218 -21.2218 -21.1746 -21.1746 -21.1169 -21.1124
   -21.1124 -21.0059 -20.9126 -20.9034 -20.9034 -20.8318 -20.8318 -20.7277
   -20.6701 -20.6701 -20.6531 -20.5292 -20.4502 -20.4502 -20.3533 -20.3533
   -20.3209 -20.2795 -20.2795 -20.2711 -20.2185 -20.2185 -20.1998 -20.1380
   -20.1380 -20.0667 -20.0176 -20.0176 -19.9075 -19.9036 -19.9036 -19.8244
   -19.8119 -19.8119 -19.7940 -19.6485 -19.6268 -19.6268 -19.6234 -19.5452
   -19.5452 -19.4811 -19.4811 -19.4493 -19.4182 -19.4182 -19.3961 -19.3289
   -19.3275 -19.3267 -19.3267 -19.3093 -19.3093 -19.2954 -19.2954 -19.2792
   -19.2768 -19.2768 -19.0692 -19.0692 -19.0652 -19.0644 -18.9124 -18.9124
   -18.8258 -18.8253 -18.8227 -18.8227 -16.7239 -15.0112 -15.0112 -14.0534
   -14.0534 -13.9874 -13.7193 -13.6943 -13.6943 -13.6100 -13.6100 -13.4925
   -13.3814 -13.3814 -13.3606 -13.3606 -13.3510 -13.3050 -13.3028 -13.2327
   -13.2327 -13.1277 -13.1202 -13.1202 -13.0384 -13.0384 -12.9638 -12.9498
   -12.9498 -12.9497 -12.9370 -12.9370 -12.9035 -12.7602 -12.7602 -12.6860
   -12.6804 -12.6699 -12.6699 -12.6337 -12.6205 -12.6097 -12.6097 -12.5904
   -12.5904 -12.3408 -12.3408 -12.3341 -12.2666 -12.1767 -12.1767 -12.1357
   -12.0668 -12.0620 -12.0416 -12.0416 -12.0212 -12.0212 -12.0051 -11.9122
   -11.9122 -11.7734 -11.6290 -11.6290 -11.5610 -11.5610 -11.4522 -11.4294
   -11.4294 -11.4153 -11.3007 -11.3007 -11.2694 -11.1927 -11.1446 -11.1446
   -11.1187 -11.1026 -11.1026 -11.0421 -10.9548 -10.9548 -10.7492 -10.7492
   -10.6689 -10.6689 -10.6309 -10.6044 -10.4894 -10.4894 -10.4522 -10.4301
   -10.4238 -10.4238 -10.3846 -10.3846 -10.3360 -10.2946 -10.2946 -10.2890
   -10.2890 -10.2243 -10.1363 -10.1140 -10.1140 -10.0757 -10.0530 -10.0303
   -10.0303 -10.0014 -10.0014  -9.9864  -9.8045  -9.8045  -9.7921  -9.7921
    -9.7369  -9.7296  -9.7117  -9.7117  -9.6999  -9.6464  -9.6154  -9.6154
    -9.6027  -9.5993  -9.5993  -9.5364  -9.5101  -9.5101  -9.4164  -9.4164
    -9.4123  -9.4083  -9.4083  -9.3352  -9.3281  -9.3281  -9.2302  -9.2161
    -9.2161  -9.1968  -9.1205  -9.1074  -9.1074  -9.0835  -9.0835  -9.0808
    -9.0733  -9.0608  -9.0597  -9.0597  -9.0570  -9.0570  -9.0530  -9.0530
    -9.0355  -8.9930  -8.9930  -8.9926  -8.9700  -8.9700  -8.9166  -8.8049
    -8.7635  -8.7635  -8.7433  -8.7431  -8.7431  -8.7115  -8.7115  -8.7087
    -8.6702  -8.6702  -8.6612  -8.5810  -8.5810  -8.5465  -8.5465  -8.5279
    -8.4560  -8.4039  -8.3531  -8.3361  -8.3361  -8.3225  -8.3225  -8.3116
    -8.3116  -8.2868  -8.2585  -8.2585  -8.2359  -8.2177  -8.2177  -8.2137
    -8.2137  -8.2088  -8.1680  -8.1378  -8.1130  -8.1130  -8.0902  -8.0902
    -8.0823  -8.0245  -8.0245  -8.0134  -7.9148  -7.9148  -7.9130  -7.7608
    -7.7608  -7.6775  -7.6775  -7.6448  -7.6111  -7.5068  -7.5068  -7.4406
    -7.4397  -7.4397  -7.3898  -7.3222  -7.2958  -7.2958  -7.2647  -7.2647
    -7.2189  -7.1919  -7.1919  -7.1893  -7.1503  -7.1503  -7.1168  -7.0970
    -7.0970  -7.0555  -7.0526  -7.0226  -7.0226  -6.9823  -6.9823  -6.9760
    -6.9760  -6.9724  -6.8848  -6.7460  -6.7460  -6.6957  -6.6425  -6.6305
    -6.6305  -6.5242  -6.5196  -6.5196  -6.5023  -6.5023  -6.4950  -6.4950
    -6.4790  -6.2993  -6.2615  -6.2279  -6.2279  -6.1635  -6.1635  -6.0712
    -6.0712  -6.0612  -6.0027  -5.9337  -5.9337  -5.8926  -5.8926  -5.8562
    -5.8051  -5.8051  -5.8005  -5.7102  -5.7102  -5.7093  -5.7034  -5.6952
    -5.6952  -5.6334  -5.6334  -5.6314  -5.5080  -5.5080  -5.2629  -5.2585
    -5.2536  -5.2536  -5.0503  -5.0503  -4.9329  -4.9307  -4.9245  -4.9245
    -3.2430  -0.9193  -0.7522  -0.7522  -0.5120  -0.3753  -0.3356  -0.3356
    -0.1207  -0.1207  -0.0092   0.0270   0.0270   0.0643   0.0786   0.0786
     0.0865   0.0865   0.1391   0.1520   0.1520   0.1874   0.2186   0.2267
     0.2304   0.2304   0.2450   0.2450   0.2943   0.2943   0.3145   0.3434
     0.3434   0.4303   0.4949   0.6058   0.6058   0.6143   0.6304   0.6304
     0.6306   0.7135   0.7784   0.7784   0.8576   0.8578   0.8578   0.8656
     0.8662   0.8662   0.8691   0.8691   0.8736   0.9007   0.9007   0.9188
     0.9224   0.9224   0.9259   1.0553   1.0553   1.0600   1.1910   1.2137
     1.2137   1.2289   1.2402   1.2402   1.2442   1.2442   1.3081   1.3259
     1.3898   1.4859   1.5362   1.5363   1.6199   1.6532   1.6540   1.6573

     occupation numbers 
     1.0000   1.0000   1.0000   1.0000   1.0000   1.0000   1.0000   1.0000
     1.0000   1.0000   1.0000   1.0000   1.0000   1.0000   1.0000   1.0000
     1.0000   1.0000   1.0000   1.0000   1.0000   1.0000   1.0000   1.0000
     1.0000   1.0000   1.0000   1.0000   1.0000   1.0000   1.0000   1.0000
     1.0000   1.0000   1.0000   1.0000   1.0000   1.0000   1.0000   1.0000
     1.0000   1.0000   1.0000   1.0000   1.0000   1.0000   1.0000   1.0000
     1.0000   1.0000   1.0000   1.0000   1.0000   1.0000   1.0000   1.0000
     1.0000   1.0000   1.0000   1.0000   1.0000   1.0000   1.0000   1.0000
     1.0000   1.0000   1.0000   1.0000   1.0000   1.0000   1.0000   1.0000
     1.0000   1.0000   1.0000   1.0000   1.0000   1.0000   1.0000   1.0000
     1.0000   1.0000   1.0000   1.0000   1.0000   1.0000   1.0000   1.0000
     1.0000   1.0000   1.0000   1.0000   1.0000   1.0000   1.0000   1.0000
     1.0000   1.0000   1.0000   1.0000   1.0000   1.0000   1.0000   1.0000
     1.0000   1.0000   1.0000   1.0000   1.0000   1.0000   1.0000   1.0000
     1.0000   1.0000   1.0000   1.0000   1.0000   1.0000   1.0000   1.0000
     1.0000   1.0000   1.0000   1.0000   1.0000   1.0000   1.0000   1.0000
     1.0000   1.0000   1.0000   1.0000   1.0000   1.0000   1.0000   1.0000
     1.0000   1.0000   1.0000   1.0000   1.0000   1.0000   1.0000   1.0000
     1.0000   1.0000   1.0000   1.0000   1.0000   1.0000   1.0000   1.0000
     1.0000   1.0000   1.0000   1.0000   1.0000   1.0000   1.0000   1.0000
     1.0000   1.0000   1.0000   1.0000   1.0000   1.0000   1.0000   1.0000
     1.0000   1.0000   1.0000   1.0000   1.0000   1.0000   1.0000   1.0000
     1.0000   1.0000   1.0000   1.0000   1.0000   1.0000   1.0000   1.0000
     1.0000   1.0000   1.0000   1.0000   1.0000   1.0000   1.0000   1.0000
     1.0000   1.0000   1.0000   1.0000   1.0000   1.0000   1.0000   1.0000
     1.0000   1.0000   1.0000   1.0000   1.0000   1.0000   1.0000   1.0000
     1.0000   1.0000   1.0000   1.0000   1.0000   1.0000   1.0000   1.0000
     1.0000   1.0000   1.0000   1.0000   1.0000   1.0000   1.0000   1.0000
     1.0000   1.0000   1.0000   1.0000   1.0000   1.0000   1.0000   1.0000
     1.0000   1.0000   1.0000   1.0000   1.0000   1.0000   1.0000   1.0000
     1.0000   1.0000   1.0000   1.0000   1.0000   1.0000   1.0000   1.0000
     1.0000   1.0000   1.0000   1.0000   1.0000   1.0000   1.0000   1.0000
     1.0000   1.0000   1.0000   1.0000   1.0000   1.0000   1.0000   1.0000
     1.0000   1.0000   1.0000   1.0000   1.0000   1.0000   1.0000   1.0000
     1.0000   1.0000   1.0000   1.0000   1.0000   1.0000   1.0000   1.0000
     1.0000   1.0000   1.0000   1.0000   1.0000   1.0000   1.0000   1.0000
     1.0000   1.0000   1.0000   1.0000   1.0000   1.0000   1.0000   1.0000
     1.0000   1.0000   1.0000   1.0000   1.0000   1.0000   1.0000   1.0000
     1.0000   1.0000   1.0000   1.0000   1.0000   1.0000   1.0000   1.0000
     1.0000   1.0000   1.0000   1.0000   1.0000   1.0000   1.0000   1.0000
     1.0000   1.0000   1.0000   1.0000   1.0000   1.0000   1.0000   1.0000
     1.0000   1.0000   1.0000   1.0000   1.0000   1.0000   1.0000   1.0000
     1.0000   1.0000   1.0000   1.0000   1.0000   1.0000   1.0000   1.0000
     1.0000   1.0000   1.0000   1.0000   1.0000   1.0000   1.0000   1.0000
     1.0000   1.0000   1.0000   1.0000   1.0000   1.0000   1.0000   1.0000
     1.0000   1.0000   1.0000   1.0000   1.0000   1.0000   1.0000   1.0000
     1.0000   1.0000   1.0000   1.0000   1.0000   1.0000   1.0000   1.0000
     1.0000   1.0000   1.0000   1.0000   1.0000   1.0000   1.0000   1.0000
     1.0000   1.0000   1.0000   1.0000   1.0000   1.0000   1.0000   1.0000
     1.0000   1.0000   1.0000   1.0000   1.0000   1.0000   1.0000   1.0000
     0.0000   0.0000   0.0000   0.0000   0.0000   0.0000   0.0000   0.0000
     0.0000   0.0000   0.0000   0.0000   0.0000   0.0000   0.0000   0.0000
     0.0000   0.0000   0.0000   0.0000   0.0000   0.0000   0.0000   0.0000
     0.0000   0.0000   0.0000   0.0000   0.0000   0.0000   0.0000   0.0000
     0.0000   0.0000   0.0000   0.0000   0.0000   0.0000   0.0000   0.0000
     0.0000   0.0000   0.0000   0.0000   0.0000   0.0000   0.0000   0.0000
     0.0000   0.0000   0.0000   0.0000   0.0000   0.0000   0.0000   0.0000
     0.0000   0.0000   0.0000   0.0000   0.0000   0.0000   0.0000   0.0000
     0.0000   0.0000   0.0000   0.0000   0.0000   0.0000   0.0000   0.0000
     0.0000   0.0000   0.0000   0.0000   0.0000   0.0000   0.0000   0.0000

          k = 0.0000-0.5774 0.0000 (635996 PWs)   bands (ev):

   -25.2363 -23.1923 -23.1923 -22.6710 -22.4202 -22.4028 -22.3453 -22.3148
   -22.1676 -22.1142 -22.1017 -22.0305 -22.0237 -21.9327 -21.8947 -21.8555
   -21.8010 -21.7394 -21.6639 -21.6522 -21.5527 -21.5252 -21.4920 -21.4746
   -21.4468 -21.3619 -21.2990 -21.2828 -21.2054 -21.1618 -21.1356 -21.0736
   -21.0411 -21.0232 -20.9076 -20.8775 -20.8521 -20.7914 -20.7438 -20.7294
   -20.6828 -20.6344 -20.6211 -20.5943 -20.5662 -20.4483 -20.4410 -20.4162
   -20.3826 -20.3642 -20.2703 -20.2681 -20.1875 -20.1719 -20.1351 -20.1164
   -20.0920 -20.0081 -19.9619 -19.9462 -19.9280 -19.9053 -19.8510 -19.8149
   -19.8022 -19.7758 -19.7625 -19.7450 -19.6658 -19.6526 -19.6028 -19.6006
   -19.5919 -19.5762 -19.5751 -19.4589 -19.4556 -19.4332 -19.3678 -19.3601
   -19.3392 -19.3318 -19.3289 -19.3206 -19.2949 -19.2903 -19.1989 -19.1822
   -19.1560 -19.1530 -19.0950 -19.0915 -19.0457 -19.0453 -19.0175 -19.0173
   -18.8574 -18.8574 -18.7704 -18.7701 -16.7239 -15.0111 -15.0111 -14.0532
   -14.0499 -13.9985 -13.7290 -13.7009 -13.6569 -13.6022 -13.5957 -13.5089
   -13.4430 -13.4415 -13.3837 -13.3741 -13.2499 -13.2461 -13.2450 -13.2366
   -13.2210 -13.1984 -13.1146 -13.1120 -13.0725 -13.0572 -12.9594 -12.9588
   -12.9558 -12.9050 -12.8842 -12.8495 -12.8394 -12.8178 -12.8131 -12.8093
   -12.7415 -12.7342 -12.6732 -12.6580 -12.5950 -12.5844 -12.4916 -12.4845
   -12.4534 -12.4485 -12.4382 -12.4330 -12.2907 -12.2864 -12.2752 -12.1380
   -12.1374 -12.0595 -12.0464 -12.0303 -11.9901 -11.9375 -11.8118 -11.7761
   -11.7734 -11.6795 -11.6487 -11.6353 -11.6251 -11.5691 -11.5367 -11.5013
   -11.5010 -11.3685 -11.3220 -11.2954 -11.2561 -11.2225 -11.2019 -11.1626
   -11.1212 -11.0615 -10.9683 -10.9667 -10.9412 -10.8256 -10.7911 -10.7537
   -10.7501 -10.7324 -10.6794 -10.6552 -10.6490 -10.6080 -10.5868 -10.5687
   -10.5656 -10.4356 -10.3664 -10.2979 -10.2954 -10.2894 -10.2528 -10.2469
   -10.2197 -10.1272 -10.0733 -10.0705 -10.0527 -10.0425 -10.0230 -10.0104
    -9.9960  -9.9270  -9.9191  -9.8412  -9.8324  -9.8181  -9.8029  -9.7932
    -9.7904  -9.7372  -9.7146  -9.7009  -9.6834  -9.6711  -9.6413  -9.5838
    -9.5676  -9.5496  -9.5469  -9.5356  -9.5157  -9.5064  -9.4713  -9.4606
    -9.4409  -9.3956  -9.3688  -9.3555  -9.3446  -9.3077  -9.2778  -9.2710
    -9.2382  -9.2202  -9.2075  -9.2073  -9.1802  -9.1382  -9.1217  -9.1142
    -9.1026  -9.0972  -9.0721  -9.0513  -9.0383  -9.0274  -9.0109  -9.0080
    -8.9890  -8.9533  -8.9407  -8.8594  -8.8476  -8.8402  -8.8270  -8.8216
    -8.8096  -8.8047  -8.7975  -8.7953  -8.7638  -8.7303  -8.7296  -8.6943
    -8.6912  -8.6869  -8.6385  -8.6376  -8.6253  -8.6176  -8.5861  -8.5349
    -8.5217  -8.5211  -8.4974  -8.4969  -8.4681  -8.4655  -8.3474  -8.3403
    -8.3019  -8.2823  -8.2514  -8.2422  -8.2121  -8.1991  -8.1905  -8.1665
    -8.1493  -8.1463  -8.0896  -8.0850  -8.0842  -8.0639  -8.0308  -8.0191
    -7.8468  -7.8374  -7.8088  -7.7826  -7.7824  -7.7631  -7.7421  -7.7338
    -7.7053  -7.6947  -7.6843  -7.6797  -7.6632  -7.6555  -7.6144  -7.5681
    -7.5541  -7.5491  -7.5286  -7.4989  -7.4594  -7.4532  -7.3822  -7.3687
    -7.3635  -7.2965  -7.2362  -7.2353  -7.1733  -7.1719  -7.1086  -7.0746
    -7.0527  -7.0318  -6.9941  -6.9938  -6.9258  -6.8933  -6.8621  -6.8327
    -6.8315  -6.8103  -6.8004  -6.7989  -6.7264  -6.7241  -6.6590  -6.6468
    -6.5815  -6.5555  -6.5151  -6.4753  -6.4646  -6.4197  -6.3942  -6.3498
    -6.3467  -6.3448  -6.3245  -6.3208  -6.3201  -6.2800  -6.2505  -6.2032
    -6.1571  -6.1557  -6.0802  -6.0075  -6.0026  -5.9091  -5.9060  -5.8619
    -5.8610  -5.8525  -5.7444  -5.7380  -5.6655  -5.6603  -5.6368  -5.6248
    -5.6039  -5.6005  -5.4686  -5.4595  -5.4174  -5.4148  -5.3331  -5.3320
    -5.2897  -5.2894  -5.1877  -5.1872  -4.9792  -4.9791  -4.8284  -4.8276
    -3.2430  -0.9197  -0.7513  -0.7506  -0.5104  -0.3831  -0.3346  -0.3256
    -0.0986  -0.0898  -0.0665  -0.0065   0.0196   0.0249   0.0657   0.0713
     0.0721   0.1055   0.1386   0.1535   0.1585   0.1862   0.1935   0.2204
     0.2223   0.2725   0.3479   0.3510   0.3691   0.3894   0.3939   0.3969
     0.3984   0.4016   0.4702   0.4848   0.5107   0.5176   0.5197   0.5279
     0.5471   0.5643   0.6078   0.7125   0.7184   0.7553   0.7988   0.8358
     0.8461   0.8893   0.8894   0.9044   0.9063   0.9748   1.0322   1.0570
     1.0585   1.0867   1.1393   1.1605   1.1668   1.1825   1.2395   1.2967
     1.3067   1.3093   1.3153   1.3248   1.3568   1.3607   1.3755   1.3796
     1.3827   1.3961   1.4087   1.4468   1.5108   1.5134   1.5219   1.5339

     occupation numbers 
     1.0000   1.0000   1.0000   1.0000   1.0000   1.0000   1.0000   1.0000
     1.0000   1.0000   1.0000   1.0000   1.0000   1.0000   1.0000   1.0000
     1.0000   1.0000   1.0000   1.0000   1.0000   1.0000   1.0000   1.0000
     1.0000   1.0000   1.0000   1.0000   1.0000   1.0000   1.0000   1.0000
     1.0000   1.0000   1.0000   1.0000   1.0000   1.0000   1.0000   1.0000
     1.0000   1.0000   1.0000   1.0000   1.0000   1.0000   1.0000   1.0000
     1.0000   1.0000   1.0000   1.0000   1.0000   1.0000   1.0000   1.0000
     1.0000   1.0000   1.0000   1.0000   1.0000   1.0000   1.0000   1.0000
     1.0000   1.0000   1.0000   1.0000   1.0000   1.0000   1.0000   1.0000
     1.0000   1.0000   1.0000   1.0000   1.0000   1.0000   1.0000   1.0000
     1.0000   1.0000   1.0000   1.0000   1.0000   1.0000   1.0000   1.0000
     1.0000   1.0000   1.0000   1.0000   1.0000   1.0000   1.0000   1.0000
     1.0000   1.0000   1.0000   1.0000   1.0000   1.0000   1.0000   1.0000
     1.0000   1.0000   1.0000   1.0000   1.0000   1.0000   1.0000   1.0000
     1.0000   1.0000   1.0000   1.0000   1.0000   1.0000   1.0000   1.0000
     1.0000   1.0000   1.0000   1.0000   1.0000   1.0000   1.0000   1.0000
     1.0000   1.0000   1.0000   1.0000   1.0000   1.0000   1.0000   1.0000
     1.0000   1.0000   1.0000   1.0000   1.0000   1.0000   1.0000   1.0000
     1.0000   1.0000   1.0000   1.0000   1.0000   1.0000   1.0000   1.0000
     1.0000   1.0000   1.0000   1.0000   1.0000   1.0000   1.0000   1.0000
     1.0000   1.0000   1.0000   1.0000   1.0000   1.0000   1.0000   1.0000
     1.0000   1.0000   1.0000   1.0000   1.0000   1.0000   1.0000   1.0000
     1.0000   1.0000   1.0000   1.0000   1.0000   1.0000   1.0000   1.0000
     1.0000   1.0000   1.0000   1.0000   1.0000   1.0000   1.0000   1.0000
     1.0000   1.0000   1.0000   1.0000   1.0000   1.0000   1.0000   1.0000
     1.0000   1.0000   1.0000   1.0000   1.0000   1.0000   1.0000   1.0000
     1.0000   1.0000   1.0000   1.0000   1.0000   1.0000   1.0000   1.0000
     1.0000   1.0000   1.0000   1.0000   1.0000   1.0000   1.0000   1.0000
     1.0000   1.0000   1.0000   1.0000   1.0000   1.0000   1.0000   1.0000
     1.0000   1.0000   1.0000   1.0000   1.0000   1.0000   1.0000   1.0000
     1.0000   1.0000   1.0000   1.0000   1.0000   1.0000   1.0000   1.0000
     1.0000   1.0000   1.0000   1.0000   1.0000   1.0000   1.0000   1.0000
     1.0000   1.0000   1.0000   1.0000   1.0000   1.0000   1.0000   1.0000
     1.0000   1.0000   1.0000   1.0000   1.0000   1.0000   1.0000   1.0000
     1.0000   1.0000   1.0000   1.0000   1.0000   1.0000   1.0000   1.0000
     1.0000   1.0000   1.0000   1.0000   1.0000   1.0000   1.0000   1.0000
     1.0000   1.0000   1.0000   1.0000   1.0000   1.0000   1.0000   1.0000
     1.0000   1.0000   1.0000   1.0000   1.0000   1.0000   1.0000   1.0000
     1.0000   1.0000   1.0000   1.0000   1.0000   1.0000   1.0000   1.0000
     1.0000   1.0000   1.0000   1.0000   1.0000   1.0000   1.0000   1.0000
     1.0000   1.0000   1.0000   1.0000   1.0000   1.0000   1.0000   1.0000
     1.0000   1.0000   1.0000   1.0000   1.0000   1.0000   1.0000   1.0000
     1.0000   1.0000   1.0000   1.0000   1.0000   1.0000   1.0000   1.0000
     1.0000   1.0000   1.0000   1.0000   1.0000   1.0000   1.0000   1.0000
     1.0000   1.0000   1.0000   1.0000   1.0000   1.0000   1.0000   1.0000
     1.0000   1.0000   1.0000   1.0000   1.0000   1.0000   1.0000   1.0000
     1.0000   1.0000   1.0000   1.0000   1.0000   1.0000   1.0000   1.0000
     1.0000   1.0000   1.0000   1.0000   1.0000   1.0000   1.0000   1.0000
     1.0000   1.0000   1.0000   1.0000   1.0000   1.0000   1.0000   1.0000
     1.0000   1.0000   1.0000   1.0000   1.0000   1.0000   1.0000   1.0000
     0.0000   0.0000   0.0000   0.0000   0.0000   0.0000   0.0000   0.0000
     0.0000   0.0000   0.0000   0.0000   0.0000   0.0000   0.0000   0.0000
     0.0000   0.0000   0.0000   0.0000   0.0000   0.0000   0.0000   0.0000
     0.0000   0.0000   0.0000   0.0000   0.0000   0.0000   0.0000   0.0000
     0.0000   0.0000   0.0000   0.0000   0.0000   0.0000   0.0000   0.0000
     0.0000   0.0000   0.0000   0.0000   0.0000   0.0000   0.0000   0.0000
     0.0000   0.0000   0.0000   0.0000   0.0000   0.0000   0.0000   0.0000
     0.0000   0.0000   0.0000   0.0000   0.0000   0.0000   0.0000   0.0000
     0.0000   0.0000   0.0000   0.0000   0.0000   0.0000   0.0000   0.0000
     0.0000   0.0000   0.0000   0.0000   0.0000   0.0000   0.0000   0.0000

     the Fermi energy is    -4.1034 ev

!    total energy              =   -3190.38263953 Ry
     Harris-Foulkes estimate   =   -3190.38263952 Ry
     estimated scf accuracy    <          8.8E-10 Ry

     The total energy is the sum of the following terms:

     one-electron contribution =  -28621.84506919 Ry
     hartree contribution      =   14447.22246972 Ry
     xc contribution           =    -841.21933523 Ry
     ewald contribution        =   12355.61028542 Ry
     one-center paw contrib.   =    -530.15099025 Ry
      -> PAW hartree energy AE =       3.32672157 Ry
      -> PAW hartree energy PS =      -3.31866943 Ry
      -> PAW xc energy AE      =      -7.70689457 Ry
      -> PAW xc energy PS      =       2.40618676 Ry
      -> total E_H with PAW    =   14447.23052186 Ry
      -> total E_XC with PAW   =    -846.52004304 Ry
     smearing contrib. (-TS)   =       0.00000000 Ry

     total magnetization       =     0.00 Bohr mag/cell
     absolute magnetization    =     0.00 Bohr mag/cell

     convergence has been achieved in  17 iterations
