
     Program PWSCF v.6.1 starts on 29Feb2020 at 20:24:39 

     This program is part of the open-source Quantum ESPRESSO suite
     for quantum simulation of materials; please cite
         "P. Giannozzi et al., J. Phys.:Condens. Matter 21 395502 (2009);
          URL http://www.quantum-espresso.org", 
     in publications or presentations arising from this work. More details at
     http://www.quantum-espresso.org/quote

     Parallel version (MPI), running on    84 processors
     K-points division:     npool     =       2
     R & G space division:  proc/nbgrp/npool/nimage =      42
     Reading input from aiida.in

     Current dimensions of program PWSCF are:
     Max number of different atomic species (ntypx) = 10
     Max number of k-points (npk) =  40000
     Max angular momentum in pseudopotentials (lmaxx) =  3
               file B.pbe-n-kjpaw_psl.0.1.UPF: wavefunction(s)  2P renormalized
               file C.pbe-n-kjpaw_psl.1.0.0.UPF: wavefunction(s)  2S 2P renormalized

     Subspace diagonalization in iterative solution of the eigenvalue problem:
     a serial algorithm will be used

 
     Parallelization info
     --------------------
     sticks:   dense  smooth     PW     G-vecs:    dense   smooth      PW
     Min         405     202     52                42811    15125    2008
     Max         406     204     53                42818    15130    2015
     Sum       17047    8491   2221              1798257   635349   84513
 


     bravais-lattice index     =            0
     lattice parameter (alat)  =      23.7095  a.u.
     unit-cell volume          =   11542.3730 (a.u.)^3
     number of atoms/cell      =           50
     number of atomic types    =            3
     number of electrons       =       200.00
     number of Kohn-Sham states=          120
     kinetic-energy cutoff     =      55.0000  Ry
     charge density cutoff     =     440.0000  Ry
     convergence threshold     =      1.0E-09
     mixing beta               =       0.3000
     number of iterations used =            8  plain     mixing
     Exchange-correlation      = PBE ( 1  4  3  4 0 0)
     nstep                     =          200


     celldm(1)=  23.709451  celldm(2)=   0.000000  celldm(3)=   0.000000
     celldm(4)=   0.000000  celldm(5)=   0.000000  celldm(6)=   0.000000

     crystal axes: (cart. coord. in units of alat)
               a(1) = (   1.000000   0.000000   0.000000 )  
               a(2) = (  -0.500000   0.866025   0.000000 )  
               a(3) = (   0.000000   0.000000   1.000000 )  

     reciprocal axes: (cart. coord. in units 2 pi/alat)
               b(1) = (  1.000000  0.577350  0.000000 )  
               b(2) = (  0.000000  1.154701  0.000000 )  
               b(3) = (  0.000000  0.000000  1.000000 )  


     PseudoPot. # 1 for  B read from file:
     ./pseudo/B.pbe-n-kjpaw_psl.0.1.UPF
     MD5 check sum: b4345a612e0782cca08559f453f3313f
     Pseudo is Projector augmented-wave + core cor, Zval =  3.0
     Generated using "atomic" code by A. Dal Corso  v.5.0.99 svn rev. 10869
     Shape of augmentation charge: BESSEL
     Using radial grid of 1059 points,  4 beta functions with: 
                l(1) =   0
                l(2) =   0
                l(3) =   1
                l(4) =   1
     Q(r) pseudized with 0 coefficients 


     PseudoPot. # 2 for  C read from file:
     ./pseudo/C.pbe-n-kjpaw_psl.1.0.0.UPF
     MD5 check sum: 5d2aebdfa2cae82b50a7e79e9516da0f
     Pseudo is Projector augmented-wave + core cor, Zval =  4.0
     Generated using "atomic" code by A. Dal Corso  v.5.1
     Shape of augmentation charge: PSQ
     Using radial grid of 1073 points,  4 beta functions with: 
                l(1) =   0
                l(2) =   0
                l(3) =   1
                l(4) =   1
     Q(r) pseudized with 0 coefficients 


     PseudoPot. # 3 for  N read from file:
     ./pseudo/N.pbe.theos.UPF
     MD5 check sum: 1fde47ee573fe9ed3106b9b4217eb757
     Pseudo is Ultrasoft + core correction, Zval =  5.0
     Generated using "atomic" code by A. Dal Corso  v.5.1
     Using radial grid of 1085 points,  4 beta functions with: 
                l(1) =   0
                l(2) =   0
                l(3) =   1
                l(4) =   1
     Q(r) pseudized with 0 coefficients 


     atomic species   valence    mass     pseudopotential
        B              3.00    10.81100      B( 1.00)
        C              4.00    12.01070      C( 1.00)
        N              5.00    14.00670      N( 1.00)

     Starting magnetic structure 
     atomic species   magnetization
        B            0.400
        C            0.000
        N            0.000

      6 Sym. Ops. (no inversion) found ( 4 have fractional translation)


                                    s                        frac. trans.

      isym =  1     identity                                     

 cryst.   s( 1) = (     1          0          0      )
                  (     0          1          0      )
                  (     0          0          1      )

 cart.    s( 1) = (  1.0000000  0.0000000  0.0000000 )
                  (  0.0000000  1.0000000  0.0000000 )
                  (  0.0000000  0.0000000  1.0000000 )


      isym =  2     120 deg rotation - cryst. axis [0,0,1]       

 cryst.   s( 2) = (     0          1          0      )    f =( -0.2000000 )
                  (    -1         -1          0      )       ( -0.2000000 )
                  (     0          0          1      )       (  0.0000000 )

 cart.    s( 2) = ( -0.5000000 -0.8660254  0.0000000 )    f =( -0.1000000 )
                  (  0.8660254 -0.5000000  0.0000000 )       ( -0.1732051 )
                  (  0.0000000  0.0000000  1.0000000 )       (  0.0000000 )


      isym =  3     120 deg rotation - cryst. axis [0,0,-1]      

 cryst.   s( 3) = (    -1         -1          0      )    f =( -0.0000000 )
                  (     1          0          0      )       ( -0.2000000 )
                  (     0          0          1      )       (  0.0000000 )

 cart.    s( 3) = ( -0.5000000  0.8660254  0.0000000 )    f =(  0.1000000 )
                  ( -0.8660254 -0.5000000  0.0000000 )       ( -0.1732051 )
                  (  0.0000000  0.0000000  1.0000000 )       (  0.0000000 )


      isym =  4     inv. 180 deg rotation - cart. axis [1,0,0]   

 cryst.   s( 4) = (    -1          0          0      )
                  (     1          1          0      )
                  (     0          0          1      )

 cart.    s( 4) = ( -1.0000000  0.0000000  0.0000000 )
                  (  0.0000000  1.0000000  0.0000000 )
                  (  0.0000000  0.0000000  1.0000000 )


      isym =  5     inv. 180 deg rotation - cryst. axis [0,1,0]  

 cryst.   s( 5) = (     1          1          0      )    f =( -0.0000000 )
                  (     0         -1          0      )       ( -0.2000000 )
                  (     0          0          1      )       (  0.0000000 )

 cart.    s( 5) = (  0.5000000  0.8660254  0.0000000 )    f =(  0.1000000 )
                  (  0.8660254 -0.5000000  0.0000000 )       ( -0.1732051 )
                  (  0.0000000  0.0000000  1.0000000 )       (  0.0000000 )


      isym =  6     inv. 180 deg rotation - cryst. axis [1,1,0]  

 cryst.   s( 6) = (     0         -1          0      )    f =( -0.2000000 )
                  (    -1          0          0      )       ( -0.2000000 )
                  (     0          0          1      )       (  0.0000000 )

 cart.    s( 6) = (  0.5000000 -0.8660254  0.0000000 )    f =( -0.1000000 )
                  ( -0.8660254 -0.5000000  0.0000000 )       ( -0.1732051 )
                  (  0.0000000  0.0000000  1.0000000 )       (  0.0000000 )


   Cartesian axes

     site n.     atom                  positions (alat units)
         1           N   tau(   1) = (   0.1000000   0.0577350   0.7970350  )
         2           B   tau(   2) = (  -0.1000000   0.2886751   0.7970350  )
         3           N   tau(   3) = (   0.0000000   0.2309401   0.7970350  )
         4           B   tau(   4) = (  -0.2000000   0.4618802   0.7970350  )
         5           N   tau(   5) = (  -0.1000000   0.4041452   0.7970350  )
         6           B   tau(   6) = (  -0.3000000   0.6350853   0.7970350  )
         7           N   tau(   7) = (  -0.2000000   0.5773503   0.7970350  )
         8           B   tau(   8) = (  -0.4000000   0.8082904   0.7970350  )
         9           N   tau(   9) = (  -0.3000000   0.7505553   0.7970350  )
        10           B   tau(  10) = (   0.2000000   0.1154701   0.7970350  )
        11           N   tau(  11) = (   0.3000000   0.0577350   0.7970350  )
        12           B   tau(  12) = (   0.1000000   0.2886751   0.7970350  )
        13           N   tau(  13) = (   0.2000000   0.2309401   0.7970350  )
        14           B   tau(  14) = (   0.0000000   0.4618802   0.7970350  )
        15           N   tau(  15) = (   0.1000000   0.4041452   0.7970350  )
        16           B   tau(  16) = (  -0.1000000   0.6350853   0.7970350  )
        17           N   tau(  17) = (   0.0000000   0.5773503   0.7970350  )
        18           B   tau(  18) = (  -0.2000000   0.8082904   0.7970350  )
        19           N   tau(  19) = (  -0.1000000   0.7505553   0.7970350  )
        20           B   tau(  20) = (   0.4000000   0.1154701   0.7970350  )
        21           N   tau(  21) = (   0.5000000   0.0577350   0.7970350  )
        22           B   tau(  22) = (   0.3000000   0.2886751   0.7970350  )
        23           N   tau(  23) = (   0.4000000   0.2309401   0.7970350  )
        24           B   tau(  24) = (   0.2000000   0.4618802   0.7970350  )
        25           N   tau(  25) = (   0.3000000   0.4041452   0.7970350  )
        26           B   tau(  26) = (   0.1000000   0.6350853   0.7970350  )
        27           N   tau(  27) = (   0.2000000   0.5773503   0.7970350  )
        28           B   tau(  28) = (   0.0000000   0.8082904   0.7970350  )
        29           N   tau(  29) = (   0.1000000   0.7505553   0.7970350  )
        30           B   tau(  30) = (   0.6000000   0.1154701   0.7970350  )
        31           N   tau(  31) = (   0.7000000   0.0577350   0.7970350  )
        32           B   tau(  32) = (   0.5000000   0.2886751   0.7970350  )
        33           N   tau(  33) = (   0.6000000   0.2309401   0.7970350  )
        34           B   tau(  34) = (   0.4000000   0.4618802   0.7970350  )
        35           N   tau(  35) = (   0.5000000   0.4041452   0.7970350  )
        36           B   tau(  36) = (   0.3000000   0.6350853   0.7970350  )
        37           N   tau(  37) = (   0.4000000   0.5773503   0.7970350  )
        38           B   tau(  38) = (   0.2000000   0.8082904   0.7970350  )
        39           N   tau(  39) = (   0.3000000   0.7505553   0.7970350  )
        40           B   tau(  40) = (   0.8000000   0.1154701   0.7970350  )
        41           N   tau(  41) = (   0.9000000   0.0577350   0.7970350  )
        42           B   tau(  42) = (   0.7000000   0.2886751   0.7970350  )
        43           N   tau(  43) = (   0.8000000   0.2309401   0.7970350  )
        44           B   tau(  44) = (   0.6000000   0.4618802   0.7970350  )
        45           N   tau(  45) = (   0.7000000   0.4041452   0.7970350  )
        46           B   tau(  46) = (   0.5000000   0.6350853   0.7970350  )
        47           N   tau(  47) = (   0.6000000   0.5773503   0.7970350  )
        48           B   tau(  48) = (   0.4000000   0.8082904   0.7970350  )
        49           N   tau(  49) = (   0.5000000   0.7505553   0.7970350  )
        50           C   tau(  50) = (   0.0000000   0.1154701   0.7970350  )

   Crystallographic axes

     site n.     atom                  positions (cryst. coord.)
         1           N   tau(   1) = (  0.1333333  0.0666667  0.7970350  )
         2           B   tau(   2) = (  0.0666667  0.3333333  0.7970350  )
         3           N   tau(   3) = (  0.1333333  0.2666667  0.7970350  )
         4           B   tau(   4) = (  0.0666667  0.5333333  0.7970350  )
         5           N   tau(   5) = (  0.1333333  0.4666667  0.7970350  )
         6           B   tau(   6) = (  0.0666667  0.7333333  0.7970350  )
         7           N   tau(   7) = (  0.1333333  0.6666667  0.7970350  )
         8           B   tau(   8) = (  0.0666667  0.9333333  0.7970350  )
         9           N   tau(   9) = (  0.1333333  0.8666667  0.7970350  )
        10           B   tau(  10) = (  0.2666667  0.1333333  0.7970350  )
        11           N   tau(  11) = (  0.3333333  0.0666667  0.7970350  )
        12           B   tau(  12) = (  0.2666667  0.3333333  0.7970350  )
        13           N   tau(  13) = (  0.3333333  0.2666667  0.7970350  )
        14           B   tau(  14) = (  0.2666667  0.5333333  0.7970350  )
        15           N   tau(  15) = (  0.3333333  0.4666667  0.7970350  )
        16           B   tau(  16) = (  0.2666667  0.7333333  0.7970350  )
        17           N   tau(  17) = (  0.3333333  0.6666667  0.7970350  )
        18           B   tau(  18) = (  0.2666667  0.9333333  0.7970350  )
        19           N   tau(  19) = (  0.3333333  0.8666667  0.7970350  )
        20           B   tau(  20) = (  0.4666667  0.1333333  0.7970350  )
        21           N   tau(  21) = (  0.5333333  0.0666667  0.7970350  )
        22           B   tau(  22) = (  0.4666667  0.3333333  0.7970350  )
        23           N   tau(  23) = (  0.5333333  0.2666667  0.7970350  )
        24           B   tau(  24) = (  0.4666667  0.5333333  0.7970350  )
        25           N   tau(  25) = (  0.5333333  0.4666667  0.7970350  )
        26           B   tau(  26) = (  0.4666667  0.7333333  0.7970350  )
        27           N   tau(  27) = (  0.5333333  0.6666667  0.7970350  )
        28           B   tau(  28) = (  0.4666667  0.9333333  0.7970350  )
        29           N   tau(  29) = (  0.5333333  0.8666667  0.7970350  )
        30           B   tau(  30) = (  0.6666667  0.1333333  0.7970350  )
        31           N   tau(  31) = (  0.7333333  0.0666667  0.7970350  )
        32           B   tau(  32) = (  0.6666667  0.3333333  0.7970350  )
        33           N   tau(  33) = (  0.7333333  0.2666667  0.7970350  )
        34           B   tau(  34) = (  0.6666667  0.5333333  0.7970350  )
        35           N   tau(  35) = (  0.7333333  0.4666667  0.7970350  )
        36           B   tau(  36) = (  0.6666667  0.7333333  0.7970350  )
        37           N   tau(  37) = (  0.7333333  0.6666667  0.7970350  )
        38           B   tau(  38) = (  0.6666667  0.9333333  0.7970350  )
        39           N   tau(  39) = (  0.7333333  0.8666667  0.7970350  )
        40           B   tau(  40) = (  0.8666667  0.1333333  0.7970350  )
        41           N   tau(  41) = (  0.9333333  0.0666667  0.7970350  )
        42           B   tau(  42) = (  0.8666667  0.3333333  0.7970350  )
        43           N   tau(  43) = (  0.9333333  0.2666667  0.7970350  )
        44           B   tau(  44) = (  0.8666667  0.5333333  0.7970350  )
        45           N   tau(  45) = (  0.9333333  0.4666667  0.7970350  )
        46           B   tau(  46) = (  0.8666667  0.7333333  0.7970350  )
        47           N   tau(  47) = (  0.9333333  0.6666667  0.7970350  )
        48           B   tau(  48) = (  0.8666667  0.9333333  0.7970350  )
        49           N   tau(  49) = (  0.9333333  0.8666667  0.7970350  )
        50           C   tau(  50) = (  0.0666667  0.1333333  0.7970350  )

     number of k points=     4  Marzari-Vanderbilt smearing, width (Ry)=  0.0050
                       cart. coord. in units 2pi/alat
        k(    1) = (   0.0000000   0.0000000   0.0000000), wk =   0.0625000
        k(    2) = (   0.0000000   0.2886751   0.0000000), wk =   0.3750000
        k(    3) = (   0.0000000  -0.5773503   0.0000000), wk =   0.1875000
        k(    4) = (   0.2500000   0.4330127   0.0000000), wk =   0.3750000

                       cryst. coord.
        k(    1) = (   0.0000000   0.0000000   0.0000000), wk =   0.0625000
        k(    2) = (   0.0000000   0.2500000   0.0000000), wk =   0.3750000
        k(    3) = (   0.0000000  -0.5000000   0.0000000), wk =   0.1875000
        k(    4) = (   0.2500000   0.2500000   0.0000000), wk =   0.3750000

     Dense  grid:  1798257 G-vectors     FFT dimensions: ( 160, 160, 160)

     Smooth grid:   635349 G-vectors     FFT dimensions: ( 120, 120, 120)

     Estimated max dynamical RAM per process >     106.59MB

     Estimated total allocated dynamical RAM >    8953.97MB
     Generating pointlists ...
     new r_m :   0.0476 (alat units)  1.1293 (a.u.) for type    1
     new r_m :   0.0476 (alat units)  1.1293 (a.u.) for type    2
     new r_m :   0.0476 (alat units)  1.1293 (a.u.) for type    3

     Check: negative/imaginary core charge=   -0.000002    0.000000

     Initial potential from superposition of free atoms

     starting charge  200.99297, renormalised to  200.00000

     negative rho (up, down):  9.459E-05 9.326E-05
     Starting wfc are  200 randomized atomic wfcs
     Checking if some PAW data can be deallocated... 
       node    0, deallocated PAW data for type:  1
       node    0, deallocated PAW data for type:  2
       node    1, deallocated PAW data for type:  1
       node    1, deallocated PAW data for type:  2
       node    2, deallocated PAW data for type:  2
       node    3, deallocated PAW data for type:  2
       node    4, deallocated PAW data for type:  1
       node    4, deallocated PAW data for type:  2
       node    5, deallocated PAW data for type:  1
       node    5, deallocated PAW data for type:  2
       node    6, deallocated PAW data for type:  2
       node    7, deallocated PAW data for type:  2
       node    8, deallocated PAW data for type:  1
       node    8, deallocated PAW data for type:  2
       node    9, deallocated PAW data for type:  1
       node    9, deallocated PAW data for type:  2
       node   10, deallocated PAW data for type:  2
       node   11, deallocated PAW data for type:  2
       node   12, deallocated PAW data for type:  1
       node   12, deallocated PAW data for type:  2
       node   13, deallocated PAW data for type:  1
       node   13, deallocated PAW data for type:  2
       node   14, deallocated PAW data for type:  2
       node   15, deallocated PAW data for type:  2
       node   16, deallocated PAW data for type:  1
       node   16, deallocated PAW data for type:  2
       node   17, deallocated PAW data for type:  1
       node   17, deallocated PAW data for type:  2
       node   18, deallocated PAW data for type:  2
       node   19, deallocated PAW data for type:  2
       node   20, deallocated PAW data for type:  1
       node   20, deallocated PAW data for type:  2
       node   21, deallocated PAW data for type:  1
       node   21, deallocated PAW data for type:  2
       node   22, deallocated PAW data for type:  2
       node   23, deallocated PAW data for type:  2
       node   24, deallocated PAW data for type:  1
       node   24, deallocated PAW data for type:  2
       node   25, deallocated PAW data for type:  1
       node   25, deallocated PAW data for type:  2
       node   26, deallocated PAW data for type:  2
       node   27, deallocated PAW data for type:  2
       node   28, deallocated PAW data for type:  1
       node   28, deallocated PAW data for type:  2
       node   29, deallocated PAW data for type:  1
       node   29, deallocated PAW data for type:  2
       node   30, deallocated PAW data for type:  2
       node   31, deallocated PAW data for type:  2
       node   32, deallocated PAW data for type:  1
       node   32, deallocated PAW data for type:  2
       node   33, deallocated PAW data for type:  1
       node   33, deallocated PAW data for type:  2
       node   34, deallocated PAW data for type:  2
       node   35, deallocated PAW data for type:  2
       node   36, deallocated PAW data for type:  1
       node   36, deallocated PAW data for type:  2
       node   37, deallocated PAW data for type:  1
       node   37, deallocated PAW data for type:  2
       node   38, deallocated PAW data for type:  2
       node   39, deallocated PAW data for type:  2
       node   40, deallocated PAW data for type:  1
       node   40, deallocated PAW data for type:  2
       node   41, deallocated PAW data for type:  1
       node   41, deallocated PAW data for type:  2
       node   42, deallocated PAW data for type:  2
       node   43, deallocated PAW data for type:  2
       node   44, deallocated PAW data for type:  1
       node   44, deallocated PAW data for type:  2
       node   45, deallocated PAW data for type:  1
       node   45, deallocated PAW data for type:  2
       node   46, deallocated PAW data for type:  2
       node   47, deallocated PAW data for type:  2
       node   48, deallocated PAW data for type:  1
       node   48, deallocated PAW data for type:  2
       node   49, deallocated PAW data for type:  1
       node   49, deallocated PAW data for type:  2
       node   50, deallocated PAW data for type:  2
       node   51, deallocated PAW data for type:  2
       node   52, deallocated PAW data for type:  1
       node   52, deallocated PAW data for type:  2
       node   53, deallocated PAW data for type:  1
       node   53, deallocated PAW data for type:  2
       node   54, deallocated PAW data for type:  2
       node   55, deallocated PAW data for type:  2
       node   56, deallocated PAW data for type:  1
       node   56, deallocated PAW data for type:  2
       node   57, deallocated PAW data for type:  1
       node   57, deallocated PAW data for type:  2
       node   58, deallocated PAW data for type:  2
       node   59, deallocated PAW data for type:  2
       node   60, deallocated PAW data for type:  1
       node   60, deallocated PAW data for type:  2
       node   61, deallocated PAW data for type:  1
       node   61, deallocated PAW data for type:  2
       node   62, deallocated PAW data for type:  2
       node   63, deallocated PAW data for type:  2
       node   64, deallocated PAW data for type:  1
       node   64, deallocated PAW data for type:  2
       node   65, deallocated PAW data for type:  1
       node   65, deallocated PAW data for type:  2
       node   66, deallocated PAW data for type:  2
       node   67, deallocated PAW data for type:  2
       node   68, deallocated PAW data for type:  1
       node   68, deallocated PAW data for type:  2
       node   69, deallocated PAW data for type:  2
       node   70, deallocated PAW data for type:  1
       node   70, deallocated PAW data for type:  2
       node   71, deallocated PAW data for type:  2
       node   72, deallocated PAW data for type:  1
       node   72, deallocated PAW data for type:  2
       node   73, deallocated PAW data for type:  2
       node   74, deallocated PAW data for type:  1
       node   74, deallocated PAW data for type:  2
       node   75, deallocated PAW data for type:  2
       node   76, deallocated PAW data for type:  1
       node   76, deallocated PAW data for type:  2
       node   77, deallocated PAW data for type:  2
       node   78, deallocated PAW data for type:  1
       node   78, deallocated PAW data for type:  2
       node   79, deallocated PAW data for type:  2
       node   80, deallocated PAW data for type:  1
       node   80, deallocated PAW data for type:  2
       node   81, deallocated PAW data for type:  2
       node   82, deallocated PAW data for type:  1
       node   82, deallocated PAW data for type:  2
       node   83, deallocated PAW data for type:  1

     total cpu time spent up to now is        5.1 secs

     per-process dynamical memory:   139.1 Mb

     Self-consistent Calculation

     iteration #  1     ecut=    55.00 Ry     beta=0.30
     Davidson diagonalization with overlap
     ethr =  1.00E-02,  avg # of iterations =  3.0

     negative rho (up, down):  5.794E-05 6.839E-05

     total cpu time spent up to now is        9.9 secs

     total energy              =    -801.51885976 Ry
     Harris-Foulkes estimate   =    -805.65805004 Ry
     estimated scf accuracy    <      11.37809552 Ry

     total magnetization       =    -0.00 Bohr mag/cell
     absolute magnetization    =     4.14 Bohr mag/cell

     iteration #  2     ecut=    55.00 Ry     beta=0.30
     Davidson diagonalization with overlap
     ethr =  5.69E-03,  avg # of iterations =  2.0

     negative rho (up, down):  1.305E-04 1.565E-04

     total cpu time spent up to now is       13.3 secs

     total energy              =    -801.95086865 Ry
     Harris-Foulkes estimate   =    -802.55781580 Ry
     estimated scf accuracy    <       1.88291551 Ry

     total magnetization       =     0.00 Bohr mag/cell
     absolute magnetization    =     3.94 Bohr mag/cell

     iteration #  3     ecut=    55.00 Ry     beta=0.30
     Davidson diagonalization with overlap
     ethr =  9.41E-04,  avg # of iterations =  8.0

     negative rho (up, down):  2.350E-04 2.692E-04

     total cpu time spent up to now is       19.8 secs

     total energy              =    -802.40884634 Ry
     Harris-Foulkes estimate   =    -802.61277620 Ry
     estimated scf accuracy    <       0.52285197 Ry

     total magnetization       =     0.00 Bohr mag/cell
     absolute magnetization    =     2.80 Bohr mag/cell

     iteration #  4     ecut=    55.00 Ry     beta=0.30
     Davidson diagonalization with overlap
     ethr =  2.61E-04,  avg # of iterations = 12.4

     negative rho (up, down):  3.170E-04 3.560E-04

     total cpu time spent up to now is       28.5 secs

     total energy              =    -802.46415656 Ry
     Harris-Foulkes estimate   =    -802.75499616 Ry
     estimated scf accuracy    <       0.69624929 Ry

     total magnetization       =     0.00 Bohr mag/cell
     absolute magnetization    =     1.75 Bohr mag/cell

     iteration #  5     ecut=    55.00 Ry     beta=0.30
     Davidson diagonalization with overlap
     ethr =  2.61E-04,  avg # of iterations =  2.8

     negative rho (up, down):  3.625E-04 3.981E-04

     total cpu time spent up to now is       32.7 secs

     total energy              =    -802.57328207 Ry
     Harris-Foulkes estimate   =    -802.56810943 Ry
     estimated scf accuracy    <       0.01819565 Ry

     total magnetization       =    -0.00 Bohr mag/cell
     absolute magnetization    =     1.24 Bohr mag/cell

     iteration #  6     ecut=    55.00 Ry     beta=0.30
     Davidson diagonalization with overlap
     c_bands:  3 eigenvalues not converged
     ethr =  9.10E-06,  avg # of iterations = 14.0

     negative rho (up, down):  4.602E-04 4.659E-04

     total cpu time spent up to now is       42.2 secs

     total energy              =    -802.58600340 Ry
     Harris-Foulkes estimate   =    -802.58202872 Ry
     estimated scf accuracy    <       0.00484641 Ry

     total magnetization       =     0.00 Bohr mag/cell
     absolute magnetization    =     1.01 Bohr mag/cell

     iteration #  7     ecut=    55.00 Ry     beta=0.30
     Davidson diagonalization with overlap
     c_bands:  2 eigenvalues not converged
     ethr =  2.42E-06,  avg # of iterations = 11.8

     negative rho (up, down):  4.841E-04 4.824E-04

     total cpu time spent up to now is       49.8 secs

     total energy              =    -802.58791824 Ry
     Harris-Foulkes estimate   =    -802.58774866 Ry
     estimated scf accuracy    <       0.00139067 Ry

     total magnetization       =    -0.06 Bohr mag/cell
     absolute magnetization    =     0.59 Bohr mag/cell

     iteration #  8     ecut=    55.00 Ry     beta=0.30
     Davidson diagonalization with overlap
     ethr =  6.95E-07,  avg # of iterations =  5.1

     negative rho (up, down):  4.825E-04 4.845E-04

     total cpu time spent up to now is       55.1 secs

     total energy              =    -802.58847380 Ry
     Harris-Foulkes estimate   =    -802.58826398 Ry
     estimated scf accuracy    <       0.00026734 Ry

     total magnetization       =    -0.06 Bohr mag/cell
     absolute magnetization    =     0.41 Bohr mag/cell

     iteration #  9     ecut=    55.00 Ry     beta=0.30
     Davidson diagonalization with overlap
     ethr =  1.34E-07,  avg # of iterations =  3.5

     negative rho (up, down):  4.828E-04 4.863E-04

     total cpu time spent up to now is       61.2 secs

     total energy              =    -802.58872405 Ry
     Harris-Foulkes estimate   =    -802.58869111 Ry
     estimated scf accuracy    <       0.00018849 Ry

     total magnetization       =    -0.05 Bohr mag/cell
     absolute magnetization    =     0.22 Bohr mag/cell

     iteration # 10     ecut=    55.00 Ry     beta=0.30
     Davidson diagonalization with overlap
     ethr =  9.42E-08,  avg # of iterations =  2.1

     negative rho (up, down):  4.849E-04 4.881E-04

     total cpu time spent up to now is       65.3 secs

     total energy              =    -802.58904236 Ry
     Harris-Foulkes estimate   =    -802.58904663 Ry
     estimated scf accuracy    <       0.00008160 Ry

     total magnetization       =     0.00 Bohr mag/cell
     absolute magnetization    =     0.12 Bohr mag/cell

     iteration # 11     ecut=    55.00 Ry     beta=0.30
     Davidson diagonalization with overlap
     ethr =  4.08E-08,  avg # of iterations =  3.4

     negative rho (up, down):  4.876E-04 4.899E-04

     total cpu time spent up to now is       71.0 secs

     total energy              =    -802.58908978 Ry
     Harris-Foulkes estimate   =    -802.58908965 Ry
     estimated scf accuracy    <       0.00000416 Ry

     total magnetization       =     0.00 Bohr mag/cell
     absolute magnetization    =     0.02 Bohr mag/cell

     iteration # 12     ecut=    55.00 Ry     beta=0.30
     Davidson diagonalization with overlap
     ethr =  2.08E-09,  avg # of iterations =  3.0

     negative rho (up, down):  4.898E-04 4.913E-04

     total cpu time spent up to now is       75.4 secs

     total energy              =    -802.58909122 Ry
     Harris-Foulkes estimate   =    -802.58909095 Ry
     estimated scf accuracy    <       0.00000192 Ry

     total magnetization       =     0.00 Bohr mag/cell
     absolute magnetization    =     0.02 Bohr mag/cell

     iteration # 13     ecut=    55.00 Ry     beta=0.30
     Davidson diagonalization with overlap
     ethr =  9.58E-10,  avg # of iterations =  4.0

     negative rho (up, down):  4.912E-04 4.923E-04

     total cpu time spent up to now is       81.1 secs

     total energy              =    -802.58909207 Ry
     Harris-Foulkes estimate   =    -802.58909305 Ry
     estimated scf accuracy    <       0.00000198 Ry

     total magnetization       =    -0.00 Bohr mag/cell
     absolute magnetization    =     0.01 Bohr mag/cell

     iteration # 14     ecut=    55.00 Ry     beta=0.30
     Davidson diagonalization with overlap
     ethr =  9.58E-10,  avg # of iterations =  2.1

     negative rho (up, down):  4.923E-04 4.930E-04

     total cpu time spent up to now is       86.0 secs

     total energy              =    -802.58909258 Ry
     Harris-Foulkes estimate   =    -802.58909259 Ry
     estimated scf accuracy    <       0.00000015 Ry

     total magnetization       =     0.00 Bohr mag/cell
     absolute magnetization    =     0.01 Bohr mag/cell

     iteration # 15     ecut=    55.00 Ry     beta=0.30
     Davidson diagonalization with overlap
     ethr =  7.38E-11,  avg # of iterations =  4.0

     negative rho (up, down):  4.931E-04 4.936E-04

     total cpu time spent up to now is       91.9 secs

     total energy              =    -802.58909276 Ry
     Harris-Foulkes estimate   =    -802.58909276 Ry
     estimated scf accuracy    <       0.00000002 Ry

     total magnetization       =    -0.00 Bohr mag/cell
     absolute magnetization    =     0.00 Bohr mag/cell

     iteration # 16     ecut=    55.00 Ry     beta=0.30
     Davidson diagonalization with overlap
     ethr =  7.89E-12,  avg # of iterations =  4.5

     negative rho (up, down):  4.936E-04 4.939E-04

     total cpu time spent up to now is       98.1 secs

     total energy              =    -802.58909278 Ry
     Harris-Foulkes estimate   =    -802.58909278 Ry
     estimated scf accuracy    <       0.00000001 Ry

     total magnetization       =     0.00 Bohr mag/cell
     absolute magnetization    =     0.00 Bohr mag/cell

     iteration # 17     ecut=    55.00 Ry     beta=0.30
     Davidson diagonalization with overlap
     ethr =  6.04E-12,  avg # of iterations =  4.0

     negative rho (up, down):  4.939E-04 4.941E-04

     total cpu time spent up to now is      104.0 secs

     total energy              =    -802.58909279 Ry
     Harris-Foulkes estimate   =    -802.58909279 Ry
     estimated scf accuracy    <          1.5E-09 Ry

     total magnetization       =    -0.00 Bohr mag/cell
     absolute magnetization    =     0.00 Bohr mag/cell

     iteration # 18     ecut=    55.00 Ry     beta=0.30
     Davidson diagonalization with overlap
     ethr =  7.25E-13,  avg # of iterations =  4.0

     negative rho (up, down):  4.947E-04 4.947E-04
 
     Magnetic moment per site:
     atom:    1    charge:    2.8338    magn:   -0.0000    constr:    0.0000
     atom:    2    charge:    0.8808    magn:   -0.0000    constr:    0.0000
     atom:    3    charge:    2.8338    magn:   -0.0000    constr:    0.0000
     atom:    4    charge:    0.8794    magn:   -0.0000    constr:    0.0000
     atom:    5    charge:    2.8675    magn:    0.0000    constr:    0.0000
     atom:    6    charge:    0.8794    magn:   -0.0000    constr:    0.0000
     atom:    7    charge:    2.8685    magn:   -0.0000    constr:    0.0000
     atom:    8    charge:    0.8808    magn:   -0.0000    constr:    0.0000
     atom:    9    charge:    2.8675    magn:    0.0000    constr:    0.0000
     atom:   10    charge:    0.8808    magn:   -0.0000    constr:    0.0000
     atom:   11    charge:    2.8675    magn:    0.0000    constr:    0.0000
     atom:   12    charge:    0.8808    magn:   -0.0000    constr:    0.0000
     atom:   13    charge:    2.8662    magn:    0.0000    constr:    0.0000
     atom:   14    charge:    0.8803    magn:   -0.0000    constr:    0.0000
     atom:   15    charge:    2.8675    magn:    0.0000    constr:    0.0000
     atom:   16    charge:    0.8800    magn:    0.0000    constr:    0.0000
     atom:   17    charge:    2.8685    magn:   -0.0000    constr:    0.0000
     atom:   18    charge:    0.8803    magn:   -0.0000    constr:    0.0000
     atom:   19    charge:    2.8685    magn:   -0.0000    constr:    0.0000
     atom:   20    charge:    0.8794    magn:   -0.0000    constr:    0.0000
     atom:   21    charge:    2.8685    magn:   -0.0000    constr:    0.0000
     atom:   22    charge:    0.8796    magn:   -0.0000    constr:    0.0000
     atom:   23    charge:    2.8681    magn:   -0.0000    constr:    0.0000
     atom:   24    charge:    0.8794    magn:   -0.0000    constr:    0.0000
     atom:   25    charge:    2.8681    magn:   -0.0000    constr:    0.0000
     atom:   26    charge:    0.8800    magn:    0.0000    constr:    0.0000
     atom:   27    charge:    2.8685    magn:   -0.0000    constr:    0.0000
     atom:   28    charge:    0.8800    magn:    0.0000    constr:    0.0000
     atom:   29    charge:    2.8685    magn:   -0.0000    constr:    0.0000
     atom:   30    charge:    0.8794    magn:   -0.0000    constr:    0.0000
     atom:   31    charge:    2.8675    magn:    0.0000    constr:    0.0000
     atom:   32    charge:    0.8798    magn:    0.0000    constr:    0.0000
     atom:   33    charge:    2.8681    magn:   -0.0000    constr:    0.0000
     atom:   34    charge:    0.8798    magn:    0.0000    constr:    0.0000
     atom:   35    charge:    2.8681    magn:   -0.0000    constr:    0.0000
     atom:   36    charge:    0.8794    magn:   -0.0000    constr:    0.0000
     atom:   37    charge:    2.8681    magn:   -0.0000    constr:    0.0000
     atom:   38    charge:    0.8803    magn:   -0.0000    constr:    0.0000
     atom:   39    charge:    2.8675    magn:    0.0000    constr:    0.0000
     atom:   40    charge:    0.8808    magn:   -0.0000    constr:    0.0000
     atom:   41    charge:    2.8338    magn:   -0.0000    constr:    0.0000
     atom:   42    charge:    0.8796    magn:   -0.0000    constr:    0.0000
     atom:   43    charge:    2.8662    magn:    0.0000    constr:    0.0000
     atom:   44    charge:    0.8798    magn:    0.0000    constr:    0.0000
     atom:   45    charge:    2.8681    magn:   -0.0000    constr:    0.0000
     atom:   46    charge:    0.8796    magn:   -0.0000    constr:    0.0000
     atom:   47    charge:    2.8681    magn:   -0.0000    constr:    0.0000
     atom:   48    charge:    0.8808    magn:   -0.0000    constr:    0.0000
     atom:   49    charge:    2.8662    magn:    0.0000    constr:    0.0000
     atom:   50    charge:    1.6077    magn:    0.0000    constr:    0.0000

     total cpu time spent up to now is      109.5 secs

     End of self-consistent calculation

 ------ SPIN UP ------------


          k = 0.0000 0.0000 0.0000 ( 79393 PWs)   bands (ev):

   -23.2923 -21.2586 -21.2586 -21.1093 -20.5564 -20.5564 -20.4283 -20.0398
   -20.0398 -19.7477 -19.3631 -19.3631 -19.3200 -18.9877 -18.9426 -18.9426
   -18.7032 -18.7003 -18.7003 -18.2888 -18.2888 -17.8843 -17.8843 -17.8676
   -17.8656 -14.8039 -13.1116 -13.1116 -12.3282 -12.1858 -12.1858 -11.9231
   -11.9231 -11.8467 -11.8046 -11.8046 -11.7434 -10.8402 -10.8402 -10.6184
   -10.4113 -10.3858 -10.3858 -10.0939  -9.9836  -9.9836  -9.9393  -9.8271
    -9.5954  -9.5954  -8.9728  -8.9728  -8.7016  -8.6413  -8.6331  -8.6331
    -8.4862  -8.2261  -8.2261  -8.0960  -8.0960  -8.0026  -7.9268  -7.9268
    -7.8842  -7.8140  -7.8140  -7.7551  -7.7551  -7.6992  -7.6548  -7.5937
    -7.5816  -7.5816  -6.6035  -6.5480  -6.5480  -6.5437  -6.5437  -6.4184
    -6.2827  -6.2827  -6.2117  -6.1140  -6.1140  -6.0903  -5.5539  -5.5539
    -5.5379  -5.2972  -5.2742  -5.2742  -5.1648  -5.1648  -4.4624  -4.4624
    -4.0738  -4.0296  -4.0181  -4.0181  -1.3375   0.8251   1.0724   1.0724
     1.2207   1.2207   1.3759   1.7469   2.0111   2.0111   2.0877   2.0877
     2.2022   2.4568   2.6103   2.6105   2.7287   2.7803   2.8491   3.0960

     occupation numbers 
     1.0000   1.0000   1.0000   1.0000   1.0000   1.0000   1.0000   1.0000
     1.0000   1.0000   1.0000   1.0000   1.0000   1.0000   1.0000   1.0000
     1.0000   1.0000   1.0000   1.0000   1.0000   1.0000   1.0000   1.0000
     1.0000   1.0000   1.0000   1.0000   1.0000   1.0000   1.0000   1.0000
     1.0000   1.0000   1.0000   1.0000   1.0000   1.0000   1.0000   1.0000
     1.0000   1.0000   1.0000   1.0000   1.0000   1.0000   1.0000   1.0000
     1.0000   1.0000   1.0000   1.0000   1.0000   1.0000   1.0000   1.0000
     1.0000   1.0000   1.0000   1.0000   1.0000   1.0000   1.0000   1.0000
     1.0000   1.0000   1.0000   1.0000   1.0000   1.0000   1.0000   1.0000
     1.0000   1.0000   1.0000   1.0000   1.0000   1.0000   1.0000   1.0000
     1.0000   1.0000   1.0000   1.0000   1.0000   1.0000   1.0000   1.0000
     1.0000   1.0000   1.0000   1.0000   1.0000   1.0000   1.0000   1.0000
     1.0000   1.0000   1.0000   1.0000   0.0000   0.0000   0.0000   0.0000
     0.0000   0.0000   0.0000   0.0000   0.0000   0.0000   0.0000   0.0000
     0.0000   0.0000   0.0000   0.0000   0.0000   0.0000   0.0000   0.0000

          k = 0.0000 0.2887 0.0000 ( 79576 PWs)   bands (ev):

   -23.2921 -21.3197 -21.2679 -20.9935 -20.6823 -20.4922 -20.2854 -20.1483
   -20.0766 -19.6287 -19.6266 -19.3734 -19.1920 -19.0722 -19.0380 -18.9364
   -18.5923 -18.5849 -18.4774 -18.3342 -18.3169 -18.0044 -17.9931 -17.8378
   -17.8325 -14.8077 -13.1169 -13.1134 -12.3225 -12.3058 -12.1574 -12.0986
   -11.9346 -11.8905 -11.5531 -11.4784 -11.3242 -11.1179 -11.0915 -10.7753
   -10.7048 -10.4699 -10.3570 -10.2326  -9.9753  -9.8213  -9.7631  -9.6595
    -9.4207  -9.3778  -9.1754  -9.1657  -8.9672  -8.6275  -8.5742  -8.5734
    -8.4403  -8.3744  -8.2827  -8.1937  -8.1881  -8.1733  -8.0206  -7.9662
    -7.9085  -7.8776  -7.6678  -7.6556  -7.6464  -7.4930  -7.4420  -7.4089
    -7.3256  -7.0617  -6.9657  -6.8715  -6.8135  -6.7269  -6.6062  -6.3309
    -6.3251  -6.2496  -6.2334  -6.1339  -5.9420  -5.7888  -5.7381  -5.6830
    -5.5239  -5.3583  -5.2477  -5.0692  -5.0631  -4.8978  -4.5880  -4.5817
    -4.2321  -4.2313  -3.9600  -3.9525  -1.3188   0.8960   1.0942   1.1080
     1.2586   1.3948   1.4509   1.4873   1.6447   1.6836   2.1131   2.3526
     2.4612   2.4653   2.4824   2.5539   2.6578   2.7971   2.9259   2.9798

     occupation numbers 
     1.0000   1.0000   1.0000   1.0000   1.0000   1.0000   1.0000   1.0000
     1.0000   1.0000   1.0000   1.0000   1.0000   1.0000   1.0000   1.0000
     1.0000   1.0000   1.0000   1.0000   1.0000   1.0000   1.0000   1.0000
     1.0000   1.0000   1.0000   1.0000   1.0000   1.0000   1.0000   1.0000
     1.0000   1.0000   1.0000   1.0000   1.0000   1.0000   1.0000   1.0000
     1.0000   1.0000   1.0000   1.0000   1.0000   1.0000   1.0000   1.0000
     1.0000   1.0000   1.0000   1.0000   1.0000   1.0000   1.0000   1.0000
     1.0000   1.0000   1.0000   1.0000   1.0000   1.0000   1.0000   1.0000
     1.0000   1.0000   1.0000   1.0000   1.0000   1.0000   1.0000   1.0000
     1.0000   1.0000   1.0000   1.0000   1.0000   1.0000   1.0000   1.0000
     1.0000   1.0000   1.0000   1.0000   1.0000   1.0000   1.0000   1.0000
     1.0000   1.0000   1.0000   1.0000   1.0000   1.0000   1.0000   1.0000
     1.0000   1.0000   1.0000   1.0000   0.0000   0.0000   0.0000   0.0000
     0.0000   0.0000   0.0000   0.0000   0.0000   0.0000   0.0000   0.0000
     0.0000   0.0000   0.0000   0.0000   0.0000   0.0000   0.0000   0.0000

          k = 0.0000-0.5774 0.0000 ( 79408 PWs)   bands (ev):

   -23.2919 -21.3544 -21.2767 -20.8966 -20.7008 -20.4590 -20.3984 -20.1523
   -19.8349 -19.7413 -19.7313 -19.5326 -19.1967 -19.0694 -19.0214 -18.7996
   -18.5563 -18.4776 -18.3657 -18.3298 -18.2431 -18.1834 -18.1500 -17.8263
   -17.8174 -14.8133 -13.1381 -13.1224 -12.3625 -12.3386 -12.1260 -11.9338
   -11.8812 -11.7723 -11.6144 -11.5288 -11.2223 -11.1835 -11.0240 -10.9619
   -10.6748 -10.6405 -10.2785 -10.2647 -10.1335  -9.8152  -9.7371  -9.4847
    -9.4174  -9.2438  -9.2363  -9.0664  -9.0218  -8.9144  -8.8577  -8.6302
    -8.3472  -8.3346  -8.3230  -8.2385  -8.1688  -8.1066  -8.0721  -7.9599
    -7.9350  -7.5928  -7.5896  -7.4965  -7.4680  -7.3330  -7.3328  -7.3143
    -7.2143  -7.1217  -7.0713  -7.0683  -7.0321  -6.7874  -6.7162  -6.5539
    -6.3264  -6.2775  -6.2361  -5.8911  -5.8363  -5.8229  -5.7995  -5.7067
    -5.4427  -5.3875  -5.1970  -5.0172  -4.8114  -4.7271  -4.6720  -4.6149
    -4.5353  -4.4856  -3.9223  -3.9208  -1.3045   0.9562   0.9853   1.1355
     1.3361   1.4497   1.4900   1.5907   1.7729   1.8429   1.8531   1.9536
     2.0205   2.3927   2.4021   2.6099   2.7494   2.9329   3.0674   3.0775

     occupation numbers 
     1.0000   1.0000   1.0000   1.0000   1.0000   1.0000   1.0000   1.0000
     1.0000   1.0000   1.0000   1.0000   1.0000   1.0000   1.0000   1.0000
     1.0000   1.0000   1.0000   1.0000   1.0000   1.0000   1.0000   1.0000
     1.0000   1.0000   1.0000   1.0000   1.0000   1.0000   1.0000   1.0000
     1.0000   1.0000   1.0000   1.0000   1.0000   1.0000   1.0000   1.0000
     1.0000   1.0000   1.0000   1.0000   1.0000   1.0000   1.0000   1.0000
     1.0000   1.0000   1.0000   1.0000   1.0000   1.0000   1.0000   1.0000
     1.0000   1.0000   1.0000   1.0000   1.0000   1.0000   1.0000   1.0000
     1.0000   1.0000   1.0000   1.0000   1.0000   1.0000   1.0000   1.0000
     1.0000   1.0000   1.0000   1.0000   1.0000   1.0000   1.0000   1.0000
     1.0000   1.0000   1.0000   1.0000   1.0000   1.0000   1.0000   1.0000
     1.0000   1.0000   1.0000   1.0000   1.0000   1.0000   1.0000   1.0000
     1.0000   1.0000   1.0000   1.0000   0.0000   0.0000   0.0000   0.0000
     0.0000   0.0000   0.0000   0.0000   0.0000   0.0000   0.0000   0.0000
     0.0000   0.0000   0.0000   0.0000   0.0000   0.0000   0.0000   0.0000

          k = 0.2500 0.4330 0.0000 ( 79406 PWs)   bands (ev):

   -23.2919 -21.3407 -21.2981 -20.8515 -20.7265 -20.5582 -20.3014 -20.0994
   -19.9116 -19.8457 -19.5993 -19.4830 -19.3188 -19.1214 -18.8955 -18.7198
   -18.5889 -18.5617 -18.3706 -18.3450 -18.2723 -18.1641 -18.0199 -17.9704
   -17.7507 -14.8142 -13.1718 -13.0939 -12.4098 -12.2674 -12.0816 -11.9133
   -11.8327 -11.7518 -11.7292 -11.5401 -11.4210 -11.3013 -10.8920 -10.7854
   -10.6707 -10.5439 -10.4246 -10.0434 -10.0062  -9.8567  -9.8153  -9.7478
    -9.4765  -9.3971  -9.3428  -9.1259  -8.7966  -8.7291  -8.6783  -8.5979
    -8.4628  -8.3431  -8.2628  -8.2364  -8.1520  -8.0778  -8.0256  -7.9892
    -7.8545  -7.7777  -7.6904  -7.6572  -7.4840  -7.4408  -7.3180  -7.2611
    -7.2362  -7.1615  -6.9310  -6.9016  -6.8700  -6.7815  -6.7525  -6.4709
    -6.4444  -6.3883  -6.3415  -5.9241  -5.8616  -5.8197  -5.6476  -5.6196
    -5.4064  -5.3917  -5.1429  -5.0995  -5.0215  -4.7009  -4.6631  -4.6189
    -4.5067  -4.2609  -4.2020  -3.7885  -1.3068   0.9149   1.0118   1.0338
     1.4280   1.5180   1.5381   1.5769   1.7760   1.8415   1.9484   2.0042
     2.0672   2.0797   2.4123   2.4618   2.8924   2.8986   2.9337   3.1255

     occupation numbers 
     1.0000   1.0000   1.0000   1.0000   1.0000   1.0000   1.0000   1.0000
     1.0000   1.0000   1.0000   1.0000   1.0000   1.0000   1.0000   1.0000
     1.0000   1.0000   1.0000   1.0000   1.0000   1.0000   1.0000   1.0000
     1.0000   1.0000   1.0000   1.0000   1.0000   1.0000   1.0000   1.0000
     1.0000   1.0000   1.0000   1.0000   1.0000   1.0000   1.0000   1.0000
     1.0000   1.0000   1.0000   1.0000   1.0000   1.0000   1.0000   1.0000
     1.0000   1.0000   1.0000   1.0000   1.0000   1.0000   1.0000   1.0000
     1.0000   1.0000   1.0000   1.0000   1.0000   1.0000   1.0000   1.0000
     1.0000   1.0000   1.0000   1.0000   1.0000   1.0000   1.0000   1.0000
     1.0000   1.0000   1.0000   1.0000   1.0000   1.0000   1.0000   1.0000
     1.0000   1.0000   1.0000   1.0000   1.0000   1.0000   1.0000   1.0000
     1.0000   1.0000   1.0000   1.0000   1.0000   1.0000   1.0000   1.0000
     1.0000   1.0000   1.0000   1.0000   0.0000   0.0000   0.0000   0.0000
     0.0000   0.0000   0.0000   0.0000   0.0000   0.0000   0.0000   0.0000
     0.0000   0.0000   0.0000   0.0000   0.0000   0.0000   0.0000   0.0000

 ------ SPIN DOWN ----------


          k = 0.0000 0.0000 0.0000 ( 79393 PWs)   bands (ev):

   -23.2923 -21.2586 -21.2586 -21.1093 -20.5564 -20.5564 -20.4283 -20.0398
   -20.0398 -19.7477 -19.3631 -19.3631 -19.3200 -18.9877 -18.9426 -18.9426
   -18.7032 -18.7003 -18.7003 -18.2888 -18.2888 -17.8843 -17.8843 -17.8676
   -17.8656 -14.8038 -13.1116 -13.1116 -12.3282 -12.1858 -12.1858 -11.9231
   -11.9231 -11.8467 -11.8046 -11.8046 -11.7434 -10.8402 -10.8402 -10.6184
   -10.4113 -10.3858 -10.3858 -10.0939  -9.9836  -9.9836  -9.9393  -9.8270
    -9.5954  -9.5954  -8.9728  -8.9728  -8.7016  -8.6413  -8.6331  -8.6331
    -8.4862  -8.2262  -8.2262  -8.0960  -8.0960  -8.0026  -7.9268  -7.9268
    -7.8842  -7.8140  -7.8140  -7.7551  -7.7551  -7.6992  -7.6548  -7.5937
    -7.5816  -7.5816  -6.6035  -6.5480  -6.5480  -6.5438  -6.5438  -6.4184
    -6.2827  -6.2827  -6.2117  -6.1140  -6.1140  -6.0903  -5.5539  -5.5539
    -5.5379  -5.2972  -5.2742  -5.2742  -5.1648  -5.1648  -4.4624  -4.4624
    -4.0738  -4.0296  -4.0181  -4.0181  -1.3373   0.8251   1.0724   1.0724
     1.2207   1.2207   1.3759   1.7469   2.0111   2.0111   2.0877   2.0877
     2.2022   2.4568   2.6103   2.6103   2.7286   2.7803   2.7803   2.8492

     occupation numbers 
     1.0000   1.0000   1.0000   1.0000   1.0000   1.0000   1.0000   1.0000
     1.0000   1.0000   1.0000   1.0000   1.0000   1.0000   1.0000   1.0000
     1.0000   1.0000   1.0000   1.0000   1.0000   1.0000   1.0000   1.0000
     1.0000   1.0000   1.0000   1.0000   1.0000   1.0000   1.0000   1.0000
     1.0000   1.0000   1.0000   1.0000   1.0000   1.0000   1.0000   1.0000
     1.0000   1.0000   1.0000   1.0000   1.0000   1.0000   1.0000   1.0000
     1.0000   1.0000   1.0000   1.0000   1.0000   1.0000   1.0000   1.0000
     1.0000   1.0000   1.0000   1.0000   1.0000   1.0000   1.0000   1.0000
     1.0000   1.0000   1.0000   1.0000   1.0000   1.0000   1.0000   1.0000
     1.0000   1.0000   1.0000   1.0000   1.0000   1.0000   1.0000   1.0000
     1.0000   1.0000   1.0000   1.0000   1.0000   1.0000   1.0000   1.0000
     1.0000   1.0000   1.0000   1.0000   1.0000   1.0000   1.0000   1.0000
     1.0000   1.0000   1.0000   1.0000   0.0000   0.0000   0.0000   0.0000
     0.0000   0.0000   0.0000   0.0000   0.0000   0.0000   0.0000   0.0000
     0.0000   0.0000   0.0000   0.0000   0.0000   0.0000   0.0000   0.0000

          k = 0.0000 0.2887 0.0000 ( 79576 PWs)   bands (ev):

   -23.2921 -21.3197 -21.2680 -20.9935 -20.6823 -20.4922 -20.2854 -20.1483
   -20.0766 -19.6287 -19.6266 -19.3734 -19.1920 -19.0722 -19.0380 -18.9364
   -18.5923 -18.5849 -18.4774 -18.3342 -18.3169 -18.0044 -17.9931 -17.8378
   -17.8325 -14.8077 -13.1169 -13.1134 -12.3225 -12.3058 -12.1574 -12.0986
   -11.9346 -11.8905 -11.5531 -11.4784 -11.3242 -11.1179 -11.0915 -10.7753
   -10.7048 -10.4699 -10.3570 -10.2326  -9.9753  -9.8212  -9.7631  -9.6595
    -9.4207  -9.3778  -9.1754  -9.1657  -8.9672  -8.6275  -8.5742  -8.5734
    -8.4403  -8.3744  -8.2827  -8.1936  -8.1881  -8.1733  -8.0206  -7.9662
    -7.9085  -7.8775  -7.6678  -7.6556  -7.6464  -7.4930  -7.4420  -7.4089
    -7.3255  -7.0617  -6.9657  -6.8715  -6.8135  -6.7269  -6.6062  -6.3309
    -6.3251  -6.2496  -6.2334  -6.1339  -5.9420  -5.7887  -5.7381  -5.6830
    -5.5238  -5.3583  -5.2477  -5.0692  -5.0631  -4.8978  -4.5880  -4.5817
    -4.2321  -4.2313  -3.9600  -3.9524  -1.3186   0.8960   1.0942   1.1080
     1.2586   1.3948   1.4509   1.4873   1.6447   1.6836   2.1131   2.3526
     2.4612   2.4653   2.4824   2.5539   2.6578   2.7971   2.9259   2.9799

     occupation numbers 
     1.0000   1.0000   1.0000   1.0000   1.0000   1.0000   1.0000   1.0000
     1.0000   1.0000   1.0000   1.0000   1.0000   1.0000   1.0000   1.0000
     1.0000   1.0000   1.0000   1.0000   1.0000   1.0000   1.0000   1.0000
     1.0000   1.0000   1.0000   1.0000   1.0000   1.0000   1.0000   1.0000
     1.0000   1.0000   1.0000   1.0000   1.0000   1.0000   1.0000   1.0000
     1.0000   1.0000   1.0000   1.0000   1.0000   1.0000   1.0000   1.0000
     1.0000   1.0000   1.0000   1.0000   1.0000   1.0000   1.0000   1.0000
     1.0000   1.0000   1.0000   1.0000   1.0000   1.0000   1.0000   1.0000
     1.0000   1.0000   1.0000   1.0000   1.0000   1.0000   1.0000   1.0000
     1.0000   1.0000   1.0000   1.0000   1.0000   1.0000   1.0000   1.0000
     1.0000   1.0000   1.0000   1.0000   1.0000   1.0000   1.0000   1.0000
     1.0000   1.0000   1.0000   1.0000   1.0000   1.0000   1.0000   1.0000
     1.0000   1.0000   1.0000   1.0000   0.0000   0.0000   0.0000   0.0000
     0.0000   0.0000   0.0000   0.0000   0.0000   0.0000   0.0000   0.0000
     0.0000   0.0000   0.0000   0.0000   0.0000   0.0000   0.0000   0.0000

          k = 0.0000-0.5774 0.0000 ( 79408 PWs)   bands (ev):

   -23.2919 -21.3544 -21.2767 -20.8966 -20.7008 -20.4590 -20.3984 -20.1523
   -19.8349 -19.7413 -19.7313 -19.5326 -19.1967 -19.0694 -19.0214 -18.7996
   -18.5563 -18.4775 -18.3657 -18.3298 -18.2431 -18.1834 -18.1500 -17.8263
   -17.8174 -14.8132 -13.1381 -13.1224 -12.3625 -12.3386 -12.1260 -11.9338
   -11.8812 -11.7723 -11.6144 -11.5288 -11.2223 -11.1835 -11.0240 -10.9619
   -10.6748 -10.6405 -10.2785 -10.2647 -10.1335  -9.8152  -9.7371  -9.4847
    -9.4174  -9.2438  -9.2363  -9.0664  -9.0218  -8.9144  -8.8577  -8.6302
    -8.3472  -8.3346  -8.3230  -8.2385  -8.1688  -8.1066  -8.0721  -7.9599
    -7.9350  -7.5928  -7.5896  -7.4965  -7.4680  -7.3330  -7.3328  -7.3143
    -7.2143  -7.1217  -7.0713  -7.0683  -7.0321  -6.7874  -6.7162  -6.5539
    -6.3264  -6.2775  -6.2361  -5.8911  -5.8363  -5.8229  -5.7995  -5.7067
    -5.4427  -5.3875  -5.1970  -5.0172  -4.8114  -4.7270  -4.6720  -4.6149
    -4.5353  -4.4856  -3.9223  -3.9208  -1.3043   0.9562   0.9853   1.1355
     1.3362   1.4497   1.4900   1.5907   1.7730   1.8429   1.8531   1.9536
     2.0206   2.3927   2.4021   2.6099   2.7494   2.9330   3.0712   3.0776

     occupation numbers 
     1.0000   1.0000   1.0000   1.0000   1.0000   1.0000   1.0000   1.0000
     1.0000   1.0000   1.0000   1.0000   1.0000   1.0000   1.0000   1.0000
     1.0000   1.0000   1.0000   1.0000   1.0000   1.0000   1.0000   1.0000
     1.0000   1.0000   1.0000   1.0000   1.0000   1.0000   1.0000   1.0000
     1.0000   1.0000   1.0000   1.0000   1.0000   1.0000   1.0000   1.0000
     1.0000   1.0000   1.0000   1.0000   1.0000   1.0000   1.0000   1.0000
     1.0000   1.0000   1.0000   1.0000   1.0000   1.0000   1.0000   1.0000
     1.0000   1.0000   1.0000   1.0000   1.0000   1.0000   1.0000   1.0000
     1.0000   1.0000   1.0000   1.0000   1.0000   1.0000   1.0000   1.0000
     1.0000   1.0000   1.0000   1.0000   1.0000   1.0000   1.0000   1.0000
     1.0000   1.0000   1.0000   1.0000   1.0000   1.0000   1.0000   1.0000
     1.0000   1.0000   1.0000   1.0000   1.0000   1.0000   1.0000   1.0000
     1.0000   1.0000   1.0000   1.0000   0.0000   0.0000   0.0000   0.0000
     0.0000   0.0000   0.0000   0.0000   0.0000   0.0000   0.0000   0.0000
     0.0000   0.0000   0.0000   0.0000   0.0000   0.0000   0.0000   0.0000

          k = 0.2500 0.4330 0.0000 ( 79406 PWs)   bands (ev):

   -23.2919 -21.3407 -21.2981 -20.8515 -20.7265 -20.5582 -20.3014 -20.0994
   -19.9116 -19.8457 -19.5993 -19.4830 -19.3188 -19.1214 -18.8955 -18.7198
   -18.5889 -18.5617 -18.3706 -18.3450 -18.2723 -18.1641 -18.0199 -17.9704
   -17.7507 -14.8142 -13.1718 -13.0939 -12.4098 -12.2674 -12.0816 -11.9133
   -11.8327 -11.7518 -11.7292 -11.5401 -11.4210 -11.3013 -10.8920 -10.7854
   -10.6707 -10.5439 -10.4246 -10.0434 -10.0062  -9.8567  -9.8152  -9.7478
    -9.4765  -9.3971  -9.3428  -9.1259  -8.7966  -8.7291  -8.6783  -8.5979
    -8.4628  -8.3431  -8.2628  -8.2364  -8.1520  -8.0778  -8.0256  -7.9892
    -7.8545  -7.7777  -7.6904  -7.6572  -7.4840  -7.4408  -7.3180  -7.2611
    -7.2362  -7.1615  -6.9310  -6.9016  -6.8700  -6.7815  -6.7525  -6.4709
    -6.4444  -6.3882  -6.3415  -5.9241  -5.8616  -5.8197  -5.6476  -5.6196
    -5.4064  -5.3917  -5.1429  -5.0995  -5.0215  -4.7009  -4.6631  -4.6189
    -4.5067  -4.2608  -4.2020  -3.7885  -1.3066   0.9149   1.0118   1.0338
     1.4280   1.5180   1.5381   1.5769   1.7760   1.8415   1.9484   2.0042
     2.0672   2.0797   2.4123   2.4618   2.8924   2.8987   2.9337   3.1259

     occupation numbers 
     1.0000   1.0000   1.0000   1.0000   1.0000   1.0000   1.0000   1.0000
     1.0000   1.0000   1.0000   1.0000   1.0000   1.0000   1.0000   1.0000
     1.0000   1.0000   1.0000   1.0000   1.0000   1.0000   1.0000   1.0000
     1.0000   1.0000   1.0000   1.0000   1.0000   1.0000   1.0000   1.0000
     1.0000   1.0000   1.0000   1.0000   1.0000   1.0000   1.0000   1.0000
     1.0000   1.0000   1.0000   1.0000   1.0000   1.0000   1.0000   1.0000
     1.0000   1.0000   1.0000   1.0000   1.0000   1.0000   1.0000   1.0000
     1.0000   1.0000   1.0000   1.0000   1.0000   1.0000   1.0000   1.0000
     1.0000   1.0000   1.0000   1.0000   1.0000   1.0000   1.0000   1.0000
     1.0000   1.0000   1.0000   1.0000   1.0000   1.0000   1.0000   1.0000
     1.0000   1.0000   1.0000   1.0000   1.0000   1.0000   1.0000   1.0000
     1.0000   1.0000   1.0000   1.0000   1.0000   1.0000   1.0000   1.0000
     1.0000   1.0000   1.0000   1.0000   0.0000   0.0000   0.0000   0.0000
     0.0000   0.0000   0.0000   0.0000   0.0000   0.0000   0.0000   0.0000
     0.0000   0.0000   0.0000   0.0000   0.0000   0.0000   0.0000   0.0000

     the Fermi energy is    -3.4106 ev

!    total energy              =    -802.58909280 Ry
     Harris-Foulkes estimate   =    -802.58909279 Ry
     estimated scf accuracy    <          3.2E-10 Ry

     The total energy is the sum of the following terms:

     one-electron contribution =   -3105.78261726 Ry
     hartree contribution      =    1594.73004643 Ry
     xc contribution           =    -210.87732674 Ry
     ewald contribution        =    1052.52473981 Ry
     one-center paw contrib.   =    -133.18393503 Ry
      -> PAW hartree energy AE =       0.00000000 Ry
      -> PAW hartree energy PS =       0.00000000 Ry
      -> PAW xc energy AE      =       0.00000000 Ry
      -> PAW xc energy PS      =       0.00000000 Ry
      -> total E_H with PAW    =    1594.73004643 Ry
      -> total E_XC with PAW   =    -210.87732674 Ry
     smearing contrib. (-TS)   =       0.00000000 Ry

     total magnetization       =    -0.00 Bohr mag/cell
     absolute magnetization    =     0.00 Bohr mag/cell

     convergence has been achieved in  18 iterations

     negative rho (up, down):  4.947E-04 4.947E-04

     Forces acting on atoms (cartesian axes, Ry/au):

     atom    1 type  3   force =    -0.13725073    0.07924175   -0.00001890
     atom    2 type  1   force =    -0.05706843    0.02808958    0.00002038
     atom    3 type  3   force =     0.00000000   -0.15848349   -0.00001890
     atom    4 type  1   force =    -0.01312706    0.00631909    0.00002022
     atom    5 type  3   force =     0.01535876   -0.02863241   -0.00001904
     atom    6 type  1   force =    -0.00109104   -0.01452791    0.00002022
     atom    7 type  3   force =    -0.00057960   -0.00033463   -0.00001905
     atom    8 type  1   force =    -0.00420793   -0.06346750    0.00002038
     atom    9 type  3   force =    -0.01711701    0.02761728   -0.00001904
     atom   10 type  1   force =     0.05286051    0.03537792    0.00002038
     atom   11 type  3   force =    -0.03247577    0.00101513   -0.00001904
     atom   12 type  1   force =     0.05706843    0.02808958    0.00002038
     atom   13 type  3   force =    -0.03307321   -0.01909483   -0.00001904
     atom   14 type  1   force =    -0.00000000    0.01765522    0.00002061
     atom   15 type  3   force =    -0.01535876   -0.02863241   -0.00001904
     atom   16 type  1   force =    -0.00017383   -0.00010036    0.00002025
     atom   17 type  3   force =     0.00000000   -0.00823960   -0.00001905
     atom   18 type  1   force =     0.01528987   -0.00882761    0.00002061
     atom   19 type  3   force =    -0.00713570    0.00411980   -0.00001905
     atom   20 type  1   force =     0.01203602    0.00820882    0.00002022
     atom   21 type  3   force =    -0.00000000    0.00066927   -0.00001905
     atom   22 type  1   force =     0.02201759    0.01271186    0.00002046
     atom   23 type  3   force =    -0.00985678   -0.00397500   -0.00001904
     atom   24 type  1   force =     0.01312706    0.00631909    0.00002022
     atom   25 type  3   force =    -0.00837085   -0.00654872   -0.00001904
     atom   26 type  1   force =     0.00017383   -0.00010036    0.00002025
     atom   27 type  3   force =     0.00057960   -0.00033463   -0.00001905
     atom   28 type  1   force =    -0.00000000    0.00020072    0.00002025
     atom   29 type  3   force =     0.00713570    0.00411980   -0.00001905
     atom   30 type  1   force =    -0.01203602    0.00820882    0.00002022
     atom   31 type  3   force =     0.03247577    0.00101513   -0.00001904
     atom   32 type  1   force =     0.00000000    0.00550469    0.00002001
     atom   33 type  3   force =     0.00985678   -0.00397500   -0.00001904
     atom   34 type  1   force =     0.00476720   -0.00275234    0.00002001
     atom   35 type  3   force =     0.00000000    0.00000000   -0.00001903
     atom   36 type  1   force =     0.00109104   -0.01452791    0.00002022
     atom   37 type  3   force =     0.00148594    0.01052373   -0.00001904
     atom   38 type  1   force =    -0.01528987   -0.00882761    0.00002061
     atom   39 type  3   force =     0.01711701    0.02761728   -0.00001904
     atom   40 type  1   force =    -0.05286051    0.03537792    0.00002038
     atom   41 type  3   force =     0.13725073    0.07924175   -0.00001890
     atom   42 type  1   force =    -0.02201759    0.01271186    0.00002046
     atom   43 type  3   force =     0.03307321   -0.01909483   -0.00001904
     atom   44 type  1   force =    -0.00476720   -0.00275234    0.00002001
     atom   45 type  3   force =     0.00837085   -0.00654872   -0.00001904
     atom   46 type  1   force =    -0.00000000   -0.02542372    0.00002046
     atom   47 type  3   force =    -0.00148594    0.01052373   -0.00001904
     atom   48 type  1   force =     0.00420793   -0.06346750    0.00002038
     atom   49 type  3   force =     0.00000000    0.03818966   -0.00001904
     atom   50 type  2   force =     0.00000000    0.00000000   -0.00001196
     The non-local contrib.  to forces
     atom    1 type  3   force =    -0.67453182    0.38944113   -0.00000081
     atom    2 type  1   force =     0.05911959   -0.04715843    0.00000617
     atom    3 type  3   force =     0.00000000   -0.77888226   -0.00000081
     atom    4 type  1   force =     0.01626491   -0.00998000    0.00000637
     atom    5 type  3   force =     0.03830200   -0.11029346   -0.00000136
     atom    6 type  1   force =    -0.00051048    0.01907583    0.00000637
     atom    7 type  3   force =    -0.00743109   -0.00429034   -0.00000139
     atom    8 type  1   force =    -0.01128060    0.07477828    0.00000617
     atom    9 type  3   force =    -0.07636594    0.08831724   -0.00000136
     atom   10 type  1   force =    -0.07040019   -0.02761986    0.00000617
     atom   11 type  3   force =    -0.11466794    0.02197623   -0.00000136
     atom   12 type  1   force =    -0.05911959   -0.04715843    0.00000617
     atom   13 type  3   force =    -0.10768888   -0.06217421   -0.00000130
     atom   14 type  1   force =    -0.00000000   -0.01466168    0.00000638
     atom   15 type  3   force =    -0.03830200   -0.11029346   -0.00000136
     atom   16 type  1   force =     0.00013435    0.00007757    0.00000644
     atom   17 type  3   force =    -0.00000000   -0.02650807   -0.00000137
     atom   18 type  1   force =    -0.01269739    0.00733084    0.00000638
     atom   19 type  3   force =    -0.02295666    0.01325403   -0.00000137
     atom   20 type  1   force =    -0.01677539   -0.00909582    0.00000637
     atom   21 type  3   force =     0.00000000    0.00858069   -0.00000139
     atom   22 type  1   force =    -0.02530399   -0.01460927    0.00000635
     atom   23 type  3   force =    -0.02936327   -0.00885856   -0.00000141
     atom   24 type  1   force =    -0.01626491   -0.00998000    0.00000637
     atom   25 type  3   force =    -0.02235338   -0.02100006   -0.00000141
     atom   26 type  1   force =    -0.00013435    0.00007757    0.00000644
     atom   27 type  3   force =     0.00743109   -0.00429034   -0.00000139
     atom   28 type  1   force =     0.00000000   -0.00015513    0.00000644
     atom   29 type  3   force =     0.02295666    0.01325403   -0.00000137
     atom   30 type  1   force =     0.01677539   -0.00909582    0.00000637
     atom   31 type  3   force =     0.11466794    0.02197623   -0.00000136
     atom   32 type  1   force =     0.00000000   -0.00580694    0.00000636
     atom   33 type  3   force =     0.02936327   -0.00885856   -0.00000141
     atom   34 type  1   force =    -0.00502896    0.00290347    0.00000636
     atom   35 type  3   force =     0.00000000   -0.00000000   -0.00000140
     atom   36 type  1   force =     0.00051048    0.01907583    0.00000637
     atom   37 type  3   force =     0.00700989    0.02985862   -0.00000141
     atom   38 type  1   force =     0.01269739    0.00733084    0.00000638
     atom   39 type  3   force =     0.07636594    0.08831724   -0.00000136
     atom   40 type  1   force =     0.07040019   -0.02761986    0.00000617
     atom   41 type  3   force =     0.67453182    0.38944113   -0.00000081
     atom   42 type  1   force =     0.02530399   -0.01460927    0.00000635
     atom   43 type  3   force =     0.10768888   -0.06217421   -0.00000130
     atom   44 type  1   force =     0.00502896    0.00290347    0.00000636
     atom   45 type  3   force =     0.02235338   -0.02100006   -0.00000141
     atom   46 type  1   force =    -0.00000000    0.02921853    0.00000635
     atom   47 type  3   force =    -0.00700989    0.02985862   -0.00000141
     atom   48 type  1   force =     0.01128060    0.07477828    0.00000617
     atom   49 type  3   force =     0.00000000    0.12434841   -0.00000130
     atom   50 type  2   force =     0.00000000    0.00000000    0.00000070
     The ionic contribution  to forces
     atom    1 type  3   force =     1.14590972   -0.66159128    0.00000000
     atom    2 type  1   force =    -0.12751488    0.22086225   -0.00000000
     atom    3 type  3   force =    -0.00000000    1.32318257    0.00000000
     atom    4 type  1   force =    -0.01917050    0.03320428   -0.00000000
     atom    5 type  3   force =    -0.05127425    0.15025588   -0.00000000
     atom    6 type  1   force =     0.01917050   -0.03320428    0.00000000
     atom    7 type  3   force =     0.00612499    0.00353626    0.00000000
     atom    8 type  1   force =     0.12751488   -0.22086225    0.00000000
     atom    9 type  3   force =     0.10448828   -0.11953274    0.00000000
     atom   10 type  1   force =     0.25502976    0.00000000    0.00000000
     atom   11 type  3   force =     0.15576253   -0.03072313   -0.00000000
     atom   12 type  1   force =     0.12751488    0.22086225   -0.00000000
     atom   13 type  3   force =     0.26919023    0.15541705    0.00000000
     atom   14 type  1   force =     0.00000000    0.06789756   -0.00000000
     atom   15 type  3   force =     0.05127425    0.15025588   -0.00000000
     atom   16 type  1   force =     0.00676105    0.00390349   -0.00000000
     atom   17 type  3   force =    -0.00000000    0.03682604   -0.00000000
     atom   18 type  1   force =     0.05880101   -0.03394878    0.00000000
     atom   19 type  3   force =     0.03189229   -0.01841302    0.00000000
     atom   20 type  1   force =     0.03834100    0.00000000    0.00000000
     atom   21 type  3   force =    -0.00000000   -0.00707253    0.00000000
     atom   22 type  1   force =     0.05880101    0.03394878   -0.00000000
     atom   23 type  3   force =     0.05345578    0.01950111   -0.00000000
     atom   24 type  1   force =     0.01917050    0.03320428   -0.00000000
     atom   25 type  3   force =     0.04361635    0.03654351    0.00000000
     atom   26 type  1   force =    -0.00676105    0.00390349   -0.00000000
     atom   27 type  3   force =    -0.00612499    0.00353626   -0.00000000
     atom   28 type  1   force =     0.00000000   -0.00780699    0.00000000
     atom   29 type  3   force =    -0.03189229   -0.01841302    0.00000000
     atom   30 type  1   force =    -0.03834100    0.00000000   -0.00000000
     atom   31 type  3   force =    -0.15576253   -0.03072313   -0.00000000
     atom   32 type  1   force =    -0.00000000    0.00780699   -0.00000000
     atom   33 type  3   force =    -0.05345578    0.01950111   -0.00000000
     atom   34 type  1   force =     0.00676105   -0.00390349   -0.00000000
     atom   35 type  3   force =    -0.00000000   -0.00000000   -0.00000000
     atom   36 type  1   force =    -0.01917050   -0.03320428   -0.00000000
     atom   37 type  3   force =    -0.00983943   -0.05604463    0.00000000
     atom   38 type  1   force =    -0.05880101   -0.03394878    0.00000000
     atom   39 type  3   force =    -0.10448828   -0.11953274   -0.00000000
     atom   40 type  1   force =    -0.25502976    0.00000000   -0.00000000
     atom   41 type  3   force =    -1.14590972   -0.66159128   -0.00000000
     atom   42 type  1   force =    -0.05880101    0.03394878    0.00000000
     atom   43 type  3   force =    -0.26919023    0.15541705    0.00000000
     atom   44 type  1   force =    -0.00676105   -0.00390349   -0.00000000
     atom   45 type  3   force =    -0.04361635    0.03654351    0.00000000
     atom   46 type  1   force =    -0.00000000   -0.06789756    0.00000000
     atom   47 type  3   force =     0.00983943   -0.05604463    0.00000000
     atom   48 type  1   force =    -0.12751488   -0.22086225    0.00000000
     atom   49 type  3   force =    -0.00000000   -0.31083410    0.00000000
     atom   50 type  2   force =     0.00000000    0.00000000    0.00000000
     The local contribution  to forces
     atom    1 type  3   force =    -0.61513233    0.35514682    0.00000081
     atom    2 type  1   force =     0.01369562   -0.14723740   -0.00000668
     atom    3 type  3   force =    -0.00000000   -0.71029363    0.00000081
     atom    4 type  1   force =    -0.00952727   -0.01726287   -0.00000676
     atom    5 type  3   force =     0.02863660   -0.06956261    0.00000105
     atom    6 type  1   force =    -0.01971372    0.00038058   -0.00000676
     atom    7 type  3   force =     0.00065403    0.00037760    0.00000102
     atom    8 type  1   force =    -0.12066352    0.08547946   -0.00000668
     atom    9 type  3   force =    -0.04592469    0.05958132    0.00000105
     atom   10 type  1   force =    -0.13435914    0.06175794   -0.00000668
     atom   11 type  3   force =    -0.07456129    0.00998128    0.00000105
     atom   12 type  1   force =    -0.01369562   -0.14723740   -0.00000668
     atom   13 type  3   force =    -0.19548253   -0.11286189    0.00000103
     atom   14 type  1   force =     0.00000000   -0.03612509   -0.00000674
     atom   15 type  3   force =    -0.02863660   -0.06956261    0.00000105
     atom   16 type  1   force =    -0.00704482   -0.00406733   -0.00000678
     atom   17 type  3   force =    -0.00000000   -0.01878739    0.00000101
     atom   18 type  1   force =    -0.03128524    0.01806254   -0.00000674
     atom   19 type  3   force =    -0.01627036    0.00939369    0.00000101
     atom   20 type  1   force =    -0.01018645    0.01688229   -0.00000676
     atom   21 type  3   force =    -0.00000000   -0.00075521    0.00000102
     atom   22 type  1   force =    -0.01251254   -0.00722412   -0.00000675
     atom   23 type  3   force =    -0.03419558   -0.01468518    0.00000107
     atom   24 type  1   force =     0.00952727   -0.01726287   -0.00000676
     atom   25 type  3   force =    -0.02981553   -0.02227165    0.00000107
     atom   26 type  1   force =     0.00704482   -0.00406733   -0.00000678
     atom   27 type  3   force =    -0.00065403    0.00037760    0.00000102
     atom   28 type  1   force =     0.00000000    0.00813466   -0.00000678
     atom   29 type  3   force =     0.01627035    0.00939369    0.00000101
     atom   30 type  1   force =     0.01018645    0.01688229   -0.00000676
     atom   31 type  3   force =     0.07456128    0.00998128    0.00000105
     atom   32 type  1   force =     0.00000000    0.00325195   -0.00000675
     atom   33 type  3   force =     0.03419558   -0.01468518    0.00000107
     atom   34 type  1   force =     0.00281627   -0.00162597   -0.00000675
     atom   35 type  3   force =    -0.00000000   -0.00000000    0.00000098
     atom   36 type  1   force =     0.01971372    0.00038058   -0.00000676
     atom   37 type  3   force =     0.00438004    0.03695683    0.00000107
     atom   38 type  1   force =     0.03128524    0.01806254   -0.00000674
     atom   39 type  3   force =     0.04592468    0.05958132    0.00000105
     atom   40 type  1   force =     0.13435914    0.06175794   -0.00000668
     atom   41 type  3   force =     0.61513233    0.35514682    0.00000081
     atom   42 type  1   force =     0.01251254   -0.00722412   -0.00000675
     atom   43 type  3   force =     0.19548253   -0.11286189    0.00000103
     atom   44 type  1   force =    -0.00281627   -0.00162597   -0.00000675
     atom   45 type  3   force =     0.02981553   -0.02227165    0.00000107
     atom   46 type  1   force =     0.00000000    0.01444824   -0.00000675
     atom   47 type  3   force =    -0.00438005    0.03695683    0.00000107
     atom   48 type  1   force =     0.12066352    0.08547946   -0.00000668
     atom   49 type  3   force =    -0.00000000    0.22572378    0.00000103
     atom   50 type  2   force =     0.00000000    0.00000000   -0.00000104
     The core correction contribution to forces
     atom    1 type  3   force =     0.00650514   -0.00375574   -0.00000004
     atom    2 type  1   force =    -0.00236753    0.00162084    0.00003972
     atom    3 type  3   force =    -0.00000000    0.00751148   -0.00000004
     atom    4 type  1   force =    -0.00069344    0.00035685    0.00003944
     atom    5 type  3   force =    -0.00030396    0.00096567    0.00000009
     atom    6 type  1   force =    -0.00003768   -0.00077896    0.00003944
     atom    7 type  3   force =     0.00007335    0.00004235    0.00000013
     atom    8 type  1   force =     0.00021993   -0.00286076    0.00003972
     atom    9 type  3   force =     0.00068432   -0.00074607    0.00000009
     atom   10 type  1   force =     0.00258745    0.00123992    0.00003972
     atom   11 type  3   force =     0.00098828   -0.00021960    0.00000009
     atom   12 type  1   force =     0.00236753    0.00162084    0.00003972
     atom   13 type  3   force =     0.00090290    0.00052129    0.00000006
     atom   14 type  1   force =    -0.00000000    0.00054312    0.00003979
     atom   15 type  3   force =     0.00030396    0.00096567    0.00000009
     atom   16 type  1   force =    -0.00002442   -0.00001410    0.00003941
     atom   17 type  3   force =    -0.00000000    0.00022880    0.00000014
     atom   18 type  1   force =     0.00047035   -0.00027156    0.00003979
     atom   19 type  3   force =     0.00019815   -0.00011440    0.00000014
     atom   20 type  1   force =     0.00065576    0.00042212    0.00003944
     atom   21 type  3   force =     0.00000000   -0.00008469    0.00000013
     atom   22 type  1   force =     0.00103147    0.00059552    0.00003969
     atom   23 type  3   force =     0.00024533    0.00006672    0.00000014
     atom   24 type  1   force =     0.00069344    0.00035685    0.00003944
     atom   25 type  3   force =     0.00018045    0.00017910    0.00000014
     atom   26 type  1   force =     0.00002442   -0.00001410    0.00003941
     atom   27 type  3   force =    -0.00007335    0.00004235    0.00000013
     atom   28 type  1   force =     0.00000000    0.00002819    0.00003941
     atom   29 type  3   force =    -0.00019815   -0.00011440    0.00000014
     atom   30 type  1   force =    -0.00065576    0.00042212    0.00003944
     atom   31 type  3   force =    -0.00098828   -0.00021960    0.00000009
     atom   32 type  1   force =     0.00000000    0.00025246    0.00003922
     atom   33 type  3   force =    -0.00024533    0.00006672    0.00000014
     atom   34 type  1   force =     0.00021864   -0.00012623    0.00003922
     atom   35 type  3   force =     0.00000000    0.00000000    0.00000019
     atom   36 type  1   force =     0.00003768   -0.00077896    0.00003944
     atom   37 type  3   force =    -0.00006488   -0.00024582    0.00000014
     atom   38 type  1   force =    -0.00047035   -0.00027156    0.00003979
     atom   39 type  3   force =    -0.00068432   -0.00074607    0.00000009
     atom   40 type  1   force =    -0.00258745    0.00123992    0.00003972
     atom   41 type  3   force =    -0.00650514   -0.00375574   -0.00000004
     atom   42 type  1   force =    -0.00103147    0.00059552    0.00003969
     atom   43 type  3   force =    -0.00090290    0.00052129    0.00000006
     atom   44 type  1   force =    -0.00021864   -0.00012623    0.00003922
     atom   45 type  3   force =    -0.00018045    0.00017910    0.00000014
     atom   46 type  1   force =     0.00000000   -0.00119104    0.00003969
     atom   47 type  3   force =     0.00006488   -0.00024582    0.00000014
     atom   48 type  1   force =    -0.00021993   -0.00286076    0.00003972
     atom   49 type  3   force =     0.00000000   -0.00104258    0.00000006
     atom   50 type  2   force =    -0.00000000   -0.00000000    0.00000722
     The Hubbard contrib.    to forces
     atom    1 type  3   force =     0.00000000    0.00000000    0.00000000
     atom    2 type  1   force =     0.00000000    0.00000000    0.00000000
     atom    3 type  3   force =     0.00000000    0.00000000    0.00000000
     atom    4 type  1   force =     0.00000000    0.00000000    0.00000000
     atom    5 type  3   force =     0.00000000    0.00000000    0.00000000
     atom    6 type  1   force =     0.00000000    0.00000000    0.00000000
     atom    7 type  3   force =     0.00000000    0.00000000    0.00000000
     atom    8 type  1   force =     0.00000000    0.00000000    0.00000000
     atom    9 type  3   force =     0.00000000    0.00000000    0.00000000
     atom   10 type  1   force =     0.00000000    0.00000000    0.00000000
     atom   11 type  3   force =     0.00000000    0.00000000    0.00000000
     atom   12 type  1   force =     0.00000000    0.00000000    0.00000000
     atom   13 type  3   force =     0.00000000    0.00000000    0.00000000
     atom   14 type  1   force =     0.00000000    0.00000000    0.00000000
     atom   15 type  3   force =     0.00000000    0.00000000    0.00000000
     atom   16 type  1   force =     0.00000000    0.00000000    0.00000000
     atom   17 type  3   force =     0.00000000    0.00000000    0.00000000
     atom   18 type  1   force =     0.00000000    0.00000000    0.00000000
     atom   19 type  3   force =     0.00000000    0.00000000    0.00000000
     atom   20 type  1   force =     0.00000000    0.00000000    0.00000000
     atom   21 type  3   force =     0.00000000    0.00000000    0.00000000
     atom   22 type  1   force =     0.00000000    0.00000000    0.00000000
     atom   23 type  3   force =     0.00000000    0.00000000    0.00000000
     atom   24 type  1   force =     0.00000000    0.00000000    0.00000000
     atom   25 type  3   force =     0.00000000    0.00000000    0.00000000
     atom   26 type  1   force =     0.00000000    0.00000000    0.00000000
     atom   27 type  3   force =     0.00000000    0.00000000    0.00000000
     atom   28 type  1   force =     0.00000000    0.00000000    0.00000000
     atom   29 type  3   force =     0.00000000    0.00000000    0.00000000
     atom   30 type  1   force =     0.00000000    0.00000000    0.00000000
     atom   31 type  3   force =     0.00000000    0.00000000    0.00000000
     atom   32 type  1   force =     0.00000000    0.00000000    0.00000000
     atom   33 type  3   force =     0.00000000    0.00000000    0.00000000
     atom   34 type  1   force =     0.00000000    0.00000000    0.00000000
     atom   35 type  3   force =     0.00000000    0.00000000    0.00000000
     atom   36 type  1   force =     0.00000000    0.00000000    0.00000000
     atom   37 type  3   force =     0.00000000    0.00000000    0.00000000
     atom   38 type  1   force =     0.00000000    0.00000000    0.00000000
     atom   39 type  3   force =     0.00000000    0.00000000    0.00000000
     atom   40 type  1   force =     0.00000000    0.00000000    0.00000000
     atom   41 type  3   force =     0.00000000    0.00000000    0.00000000
     atom   42 type  1   force =     0.00000000    0.00000000    0.00000000
     atom   43 type  3   force =     0.00000000    0.00000000    0.00000000
     atom   44 type  1   force =     0.00000000    0.00000000    0.00000000
     atom   45 type  3   force =     0.00000000    0.00000000    0.00000000
     atom   46 type  1   force =     0.00000000    0.00000000    0.00000000
     atom   47 type  3   force =     0.00000000    0.00000000    0.00000000
     atom   48 type  1   force =     0.00000000    0.00000000    0.00000000
[...]
     atom    3 type  3   force =    -0.00000000    0.00473144   -0.00000058
     atom    4 type  1   force =    -0.00189488    0.00042817    0.00003926
     atom    5 type  3   force =     0.00005776    0.00045052   -0.00000085
     atom    6 type  1   force =    -0.00057664   -0.00185510    0.00003926
     atom    7 type  3   force =     0.00010847    0.00006262   -0.00000099
     atom    8 type  1   force =    -0.00098743   -0.00728686    0.00003898
     atom    9 type  3   force =     0.00041904   -0.00017524   -0.00000085
     atom   10 type  1   force =     0.00581689    0.00449857    0.00003898
     atom   11 type  3   force =     0.00036128   -0.00027528   -0.00000085
     atom   12 type  1   force =     0.00680432    0.00278829    0.00003898
     atom   13 type  3   force =     0.00026594    0.00015354   -0.00000081
     atom   14 type  1   force =    -0.00000000    0.00054343    0.00003964
     atom   15 type  3   force =    -0.00005776    0.00045052   -0.00000085
     atom   16 type  1   force =    -0.00034408   -0.00019865    0.00003957
     atom   17 type  3   force =     0.00000000    0.00012785   -0.00000094
     atom   18 type  1   force =     0.00047062   -0.00027171    0.00003964
     atom   19 type  3   force =     0.00011073   -0.00006393   -0.00000094
     atom   20 type  1   force =     0.00131824    0.00142693    0.00003926
     atom   21 type  3   force =     0.00000000   -0.00012524   -0.00000099
     atom   22 type  1   force =     0.00248499    0.00143471    0.00003891
     atom   23 type  3   force =     0.00006640   -0.00003395   -0.00000076
     atom   24 type  1   force =     0.00189488    0.00042817    0.00003926
     atom   25 type  3   force =     0.00000380    0.00007448   -0.00000076
     atom   26 type  1   force =     0.00034408   -0.00019865    0.00003957
     atom   27 type  3   force =    -0.00010847    0.00006262   -0.00000099
     atom   28 type  1   force =     0.00000000    0.00039731    0.00003957
     atom   29 type  3   force =    -0.00011073   -0.00006393   -0.00000094
     atom   30 type  1   force =    -0.00131824    0.00142693    0.00003926
     atom   31 type  3   force =    -0.00036128   -0.00027528   -0.00000085
     atom   32 type  1   force =     0.00000000    0.00048700    0.00003905
     atom   33 type  3   force =    -0.00006640   -0.00003395   -0.00000076
     atom   34 type  1   force =     0.00042175   -0.00024350    0.00003905
     atom   35 type  3   force =     0.00000000    0.00000000   -0.00000074
     atom   36 type  1   force =     0.00057664   -0.00185510    0.00003926
     atom   37 type  3   force =    -0.00006260   -0.00004053   -0.00000076
     atom   38 type  1   force =    -0.00047062   -0.00027171    0.00003964
     atom   39 type  3   force =    -0.00041904   -0.00017524   -0.00000085
     atom   40 type  1   force =    -0.00581689    0.00449857    0.00003898
     atom   41 type  3   force =    -0.00409755   -0.00236572   -0.00000058
     atom   42 type  1   force =    -0.00248499    0.00143471    0.00003891
     atom   43 type  3   force =    -0.00026594    0.00015354   -0.00000081
     atom   44 type  1   force =    -0.00042175   -0.00024350    0.00003905
     atom   45 type  3   force =    -0.00000380    0.00007448   -0.00000076
     atom   46 type  1   force =     0.00000000   -0.00286942    0.00003891
     atom   47 type  3   force =     0.00006260   -0.00004053   -0.00000076
     atom   48 type  1   force =     0.00098743   -0.00728686    0.00003898
     atom   49 type  3   force =     0.00000000   -0.00030708   -0.00000081
     atom   50 type  2   force =    -0.00000000   -0.00000000    0.00000785
     The Hubbard contrib.    to forces
     atom    1 type  3   force =     0.00000000    0.00000000    0.00000000
     atom    2 type  1   force =     0.00000000    0.00000000    0.00000000
     atom    3 type  3   force =     0.00000000    0.00000000    0.00000000
     atom    4 type  1   force =     0.00000000    0.00000000    0.00000000
     atom    5 type  3   force =     0.00000000    0.00000000    0.00000000
     atom    6 type  1   force =     0.00000000    0.00000000    0.00000000
     atom    7 type  3   force =     0.00000000    0.00000000    0.00000000
     atom    8 type  1   force =     0.00000000    0.00000000    0.00000000
     atom    9 type  3   force =     0.00000000    0.00000000    0.00000000
     atom   10 type  1   force =     0.00000000    0.00000000    0.00000000
     atom   11 type  3   force =     0.00000000    0.00000000    0.00000000
     atom   12 type  1   force =     0.00000000    0.00000000    0.00000000
     atom   13 type  3   force =     0.00000000    0.00000000    0.00000000
     atom   14 type  1   force =     0.00000000    0.00000000    0.00000000
     atom   15 type  3   force =     0.00000000    0.00000000    0.00000000
     atom   16 type  1   force =     0.00000000    0.00000000    0.00000000
     atom   17 type  3   force =     0.00000000    0.00000000    0.00000000
     atom   18 type  1   force =     0.00000000    0.00000000    0.00000000
     atom   19 type  3   force =     0.00000000    0.00000000    0.00000000
     atom   20 type  1   force =     0.00000000    0.00000000    0.00000000
     atom   21 type  3   force =     0.00000000    0.00000000    0.00000000
     atom   22 type  1   force =     0.00000000    0.00000000    0.00000000
     atom   23 type  3   force =     0.00000000    0.00000000    0.00000000
     atom   24 type  1   force =     0.00000000    0.00000000    0.00000000
     atom   25 type  3   force =     0.00000000    0.00000000    0.00000000
     atom   26 type  1   force =     0.00000000    0.00000000    0.00000000
     atom   27 type  3   force =     0.00000000    0.00000000    0.00000000
     atom   28 type  1   force =     0.00000000    0.00000000    0.00000000
     atom   29 type  3   force =     0.00000000    0.00000000    0.00000000
     atom   30 type  1   force =     0.00000000    0.00000000    0.00000000
     atom   31 type  3   force =     0.00000000    0.00000000    0.00000000
     atom   32 type  1   force =     0.00000000    0.00000000    0.00000000
     atom   33 type  3   force =     0.00000000    0.00000000    0.00000000
     atom   34 type  1   force =     0.00000000    0.00000000    0.00000000
     atom   35 type  3   force =     0.00000000    0.00000000    0.00000000
     atom   36 type  1   force =     0.00000000    0.00000000    0.00000000
     atom   37 type  3   force =     0.00000000    0.00000000    0.00000000
     atom   38 type  1   force =     0.00000000    0.00000000    0.00000000
     atom   39 type  3   force =     0.00000000    0.00000000    0.00000000
     atom   40 type  1   force =     0.00000000    0.00000000    0.00000000
     atom   41 type  3   force =     0.00000000    0.00000000    0.00000000
     atom   42 type  1   force =     0.00000000    0.00000000    0.00000000
     atom   43 type  3   force =     0.00000000    0.00000000    0.00000000
     atom   44 type  1   force =     0.00000000    0.00000000    0.00000000
     atom   45 type  3   force =     0.00000000    0.00000000    0.00000000
     atom   46 type  1   force =     0.00000000    0.00000000    0.00000000
     atom   47 type  3   force =     0.00000000    0.00000000    0.00000000
     atom   48 type  1   force =     0.00000000    0.00000000    0.00000000
     atom   49 type  3   force =     0.00000000    0.00000000    0.00000000
     atom   50 type  2   force =     0.00000000    0.00000000    0.00000000
     The SCF correction term to forces
     atom    1 type  3   force =    -0.00000040    0.00000023   -0.00000001
     atom    2 type  1   force =     0.00000037   -0.00000024    0.00000000
     atom    3 type  3   force =    -0.00000000   -0.00000046   -0.00000001
     atom    4 type  1   force =     0.00000007   -0.00000015    0.00000000
     atom    5 type  3   force =     0.00000025   -0.00000066    0.00000001
     atom    6 type  1   force =    -0.00000009    0.00000014    0.00000000
     atom    7 type  3   force =     0.00000008    0.00000005   -0.00000000
     atom    8 type  1   force =    -0.00000002    0.00000044    0.00000000
     atom    9 type  3   force =    -0.00000044    0.00000054    0.00000001
     atom   10 type  1   force =    -0.00000039   -0.00000020    0.00000000
     atom   11 type  3   force =    -0.00000069    0.00000011    0.00000001
     atom   12 type  1   force =    -0.00000037   -0.00000024    0.00000000
     atom   13 type  3   force =    -0.00000046   -0.00000026    0.00000001
     atom   14 type  1   force =     0.00000000   -0.00000022    0.00000000
     atom   15 type  3   force =    -0.00000025   -0.00000066    0.00000001
     atom   16 type  1   force =    -0.00000003   -0.00000002   -0.00000000
     atom   17 type  3   force =     0.00000000   -0.00000038   -0.00000000
     atom   18 type  1   force =    -0.00000019    0.00000011    0.00000000
     atom   19 type  3   force =    -0.00000033    0.00000019   -0.00000000
     atom   20 type  1   force =    -0.00000017    0.00000001    0.00000000
     atom   21 type  3   force =     0.00000000   -0.00000010   -0.00000000
     atom   22 type  1   force =    -0.00000013   -0.00000008   -0.00000000
     atom   23 type  3   force =    -0.00000017    0.00000000   -0.00000000
     atom   24 type  1   force =    -0.00000007   -0.00000015    0.00000000
     atom   25 type  3   force =    -0.00000008   -0.00000015   -0.00000000
     atom   26 type  1   force =     0.00000003   -0.00000002   -0.00000000
     atom   27 type  3   force =    -0.00000008    0.00000005   -0.00000000
     atom   28 type  1   force =     0.00000000    0.00000004   -0.00000000
     atom   29 type  3   force =     0.00000033    0.00000019   -0.00000000
     atom   30 type  1   force =     0.00000017    0.00000001    0.00000000
     atom   31 type  3   force =     0.00000069    0.00000011    0.00000001
     atom   32 type  1   force =    -0.00000000    0.00000009   -0.00000000
     atom   33 type  3   force =     0.00000017    0.00000000   -0.00000000
     atom   34 type  1   force =     0.00000008   -0.00000005   -0.00000000
     atom   35 type  3   force =     0.00000000    0.00000000   -0.00000000
     atom   36 type  1   force =     0.00000009    0.00000014    0.00000000
     atom   37 type  3   force =     0.00000009    0.00000014   -0.00000000
     atom   38 type  1   force =     0.00000019    0.00000011    0.00000000
     atom   39 type  3   force =     0.00000044    0.00000054    0.00000001
     atom   40 type  1   force =     0.00000039   -0.00000020    0.00000000
     atom   41 type  3   force =     0.00000040    0.00000023   -0.00000001
     atom   42 type  1   force =     0.00000013   -0.00000008   -0.00000000
     atom   43 type  3   force =     0.00000046   -0.00000026    0.00000001
     atom   44 type  1   force =    -0.00000008   -0.00000005   -0.00000000
     atom   45 type  3   force =     0.00000008   -0.00000015   -0.00000000
     atom   46 type  1   force =     0.00000000    0.00000015   -0.00000000
     atom   47 type  3   force =    -0.00000009    0.00000014   -0.00000000
     atom   48 type  1   force =     0.00000002    0.00000044    0.00000000
     atom   49 type  3   force =     0.00000000    0.00000053    0.00000001
     atom   50 type  2   force =    -0.00000000    0.00000000   -0.00000001

     Total force =     0.003904     Total SCF correction =     0.000003


     Computing stress (Cartesian axis) and pressure


     negative rho (up, down):  4.989E-04 4.989E-04
          total   stress  (Ry/bohr**3)                   (kbar)     P=   -8.54
  -0.00007347   0.00000000   0.00000000        -10.81      0.00      0.00
   0.00000000  -0.00007347   0.00000000          0.00    -10.81      0.00
   0.00000000   0.00000000  -0.00002725          0.00      0.00     -4.01

     kinetic stress (kbar)   3215.38     -0.00      0.00
                               -0.00   3215.38     -0.00
                                0.00     -0.00   3621.25

     local   stress (kbar) -43045.62     -0.00     -0.00
                               -0.00 -43045.62     -0.00
                               -0.00     -0.00  41396.07

     nonloc. stress (kbar)   1103.58     -0.00      0.00
                               -0.00   1103.58      0.00
                                0.00      0.00   1029.88

     hartree stress (kbar)  19660.02      0.00     -0.00
                                0.00  19660.02     -0.00
                               -0.00     -0.00 -18983.10

     exc-cor stress (kbar)   -441.08      0.00      0.00
                                0.00   -441.08      0.00
                                0.00      0.00   -472.34

     corecor stress (kbar)   -346.19     -0.00      0.00
                               -0.00   -346.19      0.00
                                0.00      0.00   -335.46

     ewald   stress (kbar)  19843.12      0.00      0.00
                                0.00  19843.12      0.00
                                0.00      0.00 -26260.31

     hubbard stress (kbar)      0.00      0.00      0.00
                                0.00      0.00      0.00
                                0.00      0.00      0.00

     london  stress (kbar)      0.00      0.00      0.00
                                0.00      0.00      0.00
                                0.00      0.00      0.00

     XDM     stress (kbar)      0.00      0.00      0.00
                                0.00      0.00      0.00
                                0.00      0.00      0.00

     dft-nl  stress (kbar)      0.00      0.00      0.00
                                0.00      0.00      0.00
                                0.00      0.00      0.00

     TS-vdW  stress (kbar)      0.00      0.00      0.00
                                0.00      0.00      0.00
                                0.00      0.00      0.00



     bfgs converged in   7 scf cycles and   6 bfgs steps
     (criteria: energy <  1.0E-04 Ry, force <  1.0E-03 Ry/Bohr)

     End of BFGS Geometry Optimization

     Final energy   =    -802.6312595278 Ry
Begin final coordinates

ATOMIC_POSITIONS (angstrom)
N        1.191319721   0.760936372   9.999965686
B       -1.269477235   3.610151802  10.000018291
N        0.000000000   2.824362657   9.999965686
B       -2.509563182   5.791149374  10.000021054
N       -1.247508898   5.049417763   9.999985106
B       -3.767399652   7.969786047  10.000021054
N       -2.510855774   7.242827544   9.999983932
B       -5.036155981  10.134230766  10.000018291
N       -3.778730928   9.433622924   9.999985106
B        2.506571700   1.467441335  10.000018291
N        3.742028417   0.728783216   9.999985106
B        1.269477235   3.610151802  10.000018291
N        2.509538335   2.897627767   9.999984013
B        0.000000000   5.791161690  10.000022055
N        1.247508898   5.049417763   9.999985106
B       -1.255816331   7.967424905  10.000021013
N        0.000000000   7.238152346   9.999984109
B       -2.512607394  10.143125357  10.000022055
N       -1.259476728   9.419630029   9.999984109
B        5.015413977   1.450888482  10.000021054
N        6.273250447   0.726168814   9.999983932
B        3.775725319   3.628661163  10.000020844
N        5.017569519   2.896976585   9.999983978
B        2.509563183   5.791149374  10.000021054
N        3.762989987   5.069972076   9.999983978
B        1.255816331   7.967424905  10.000021013
N        2.510855774   7.242827544   9.999983932
B        0.000000000  10.142562595  10.000021013
N        1.259476728   9.419630029   9.999984109
B        7.531086916   1.450888482  10.000021054
N        8.804472476   0.728783216   9.999985106
B        6.273250447   3.623496672  10.000020158
N        7.528931374   2.896976585   9.999983978
B        5.020015303   5.794163615  10.000020158
N        6.273250447   5.070607968   9.999983797
B        3.767399652   7.969786047  10.000021054
N        5.018670915   7.244875241   9.999983978
B        2.512607395  10.143125357  10.000022055
N        3.778730928   9.433622924   9.999985106
B       10.039929193   1.467441335  10.000018291
N       11.355181172   0.760936372   9.999965686
B        8.770775574   3.628661163  10.000020844
N       10.036962558   2.897627767   9.999984013
B        7.526485591   5.794163615  10.000020158
N        8.783510907   5.069972076   9.999983978
B        6.273250447   7.954501577  10.000020844
N        7.527829979   7.244875241   9.999983978
B        5.036155982  10.134230766  10.000018291
N        6.273250447   9.416568369   9.999984013
C       -0.000000000   1.448745134   9.999960199
End final coordinates



     Writing output data file aiida.save
 
     init_run     :      3.65s CPU      4.13s WALL (       1 calls)
     electrons    :    493.21s CPU    501.28s WALL (       8 calls)
     update_pot   :      8.56s CPU      8.78s WALL (       7 calls)
     forces       :     12.72s CPU     13.15s WALL (       8 calls)
     stress       :     54.84s CPU     55.20s WALL (       8 calls)

     Called by init_run:
     wfcinit      :      1.51s CPU      1.76s WALL (       1 calls)
     wfcinit:atom :      0.01s CPU      0.01s WALL (       4 calls)
     wfcinit:wfcr :      1.43s CPU      1.68s WALL (       4 calls)
     potinit      :      1.06s CPU      1.11s WALL (       2 calls)

     Called by electrons:
     c_bands      :    385.00s CPU    390.73s WALL (     101 calls)
     sum_band     :     68.77s CPU     69.84s WALL (     101 calls)
     v_of_rho     :     14.90s CPU     15.33s WALL (     108 calls)
     v_h          :      0.62s CPU      0.63s WALL (     108 calls)
     v_xc         :     16.35s CPU     16.81s WALL (     124 calls)
     newd         :     13.83s CPU     13.94s WALL (     108 calls)
     PAW_pot      :      6.51s CPU      6.66s WALL (     115 calls)
     mix_rho      :      2.90s CPU      2.94s WALL (     101 calls)

     Called by c_bands:
     init_us_2    :      3.62s CPU      3.69s WALL (     904 calls)
     cegterg      :    353.43s CPU    358.54s WALL (     404 calls)

     Called by sum_band:
     sum_band:bec :      0.15s CPU      0.16s WALL (     432 calls)
     addusdens    :     19.57s CPU     19.73s WALL (     101 calls)

     Called by *egterg:
     h_psi        :    207.82s CPU    210.84s WALL (    2015 calls)
     s_psi        :     19.86s CPU     19.99s WALL (    2015 calls)
     g_psi        :      0.67s CPU      0.68s WALL (    1607 calls)
     cdiaghg      :     63.23s CPU     63.77s WALL (    1975 calls)
     cegterg:over :     22.96s CPU     23.86s WALL (    1607 calls)
     cegterg:upda :     15.05s CPU     15.16s WALL (    1607 calls)
     cegterg:last :      6.24s CPU      6.30s WALL (     428 calls)

     Called by h_psi:
     h_psi:pot    :    204.76s CPU    207.73s WALL (    2015 calls)
     h_psi:calbec :     21.79s CPU     22.32s WALL (    2015 calls)
     vloc_psi     :    162.46s CPU    164.79s WALL (    2015 calls)
     add_vuspsi   :     20.47s CPU     20.61s WALL (    2015 calls)

     General routines
     calbec       :     32.15s CPU     33.00s WALL (    2607 calls)
     fft          :     13.41s CPU     13.67s WALL (    3628 calls)
     ffts         :      0.54s CPU      0.55s WALL (     418 calls)
     fftw         :    156.22s CPU    158.31s WALL (  333252 calls)
     interpolate  :      2.51s CPU      2.55s WALL (     418 calls)
     davcio       :      0.00s CPU      0.01s WALL (       4 calls)
 
     Parallel routines
     fft_scatter  :    107.33s CPU    109.03s WALL (  337298 calls)

     PAW routines
     PAW_pot      :      6.51s CPU      6.66s WALL (     115 calls)
     PAW_symme    :      0.09s CPU      0.09s WALL (     216 calls)
 
     PWSCF        :  9m37.44s CPU     9m48.74s WALL

 
   This run was terminated on:  20:34:28  29Feb2020            

=------------------------------------------------------------------------------=
   JOB DONE.
=------------------------------------------------------------------------------=
