
     Program PWSCF v.6.1 starts on 29Feb2020 at 20:26: 9 

     This program is part of the open-source Quantum ESPRESSO suite
     for quantum simulation of materials; please cite
         "P. Giannozzi et al., J. Phys.:Condens. Matter 21 395502 (2009);
          URL http://www.quantum-espresso.org", 
     in publications or presentations arising from this work. More details at
     http://www.quantum-espresso.org/quote

     Parallel version (MPI), running on    84 processors
     K-points division:     npool     =       2
     R & G space division:  proc/nbgrp/npool/nimage =      42
     Reading input from aiida.in

     Current dimensions of program PWSCF are:
     Max number of different atomic species (ntypx) = 10
     Max number of k-points (npk) =  40000
     Max angular momentum in pseudopotentials (lmaxx) =  3
               file B.pbe-n-kjpaw_psl.0.1.UPF: wavefunction(s)  2P renormalized
               file C.pbe-n-kjpaw_psl.1.0.0.UPF: wavefunction(s)  2S 2P renormalized

     Subspace diagonalization in iterative solution of the eigenvalue problem:
     a serial algorithm will be used

 
     Parallelization info
     --------------------
     sticks:   dense  smooth     PW     G-vecs:    dense   smooth      PW
     Min        1039     519    133               175441    62011    8051
     Max        1040     520    134               175445    62018    8058
     Sum       43669   21823   5599              7368589  2604557  338221
 


     bravais-lattice index     =            0
     lattice parameter (alat)  =      37.9351  a.u.
     unit-cell volume          =   47277.5597 (a.u.)^3
     number of atoms/cell      =          128
     number of atomic types    =            3
     number of electrons       =       512.00
     number of Kohn-Sham states=          307
     kinetic-energy cutoff     =      55.0000  Ry
     charge density cutoff     =     440.0000  Ry
     convergence threshold     =      1.0E-09
     mixing beta               =       0.3000
     number of iterations used =            8  plain     mixing
     Exchange-correlation      = PBE ( 1  4  3  4 0 0)
     nstep                     =          200


     celldm(1)=  37.935121  celldm(2)=   0.000000  celldm(3)=   0.000000
     celldm(4)=   0.000000  celldm(5)=   0.000000  celldm(6)=   0.000000

     crystal axes: (cart. coord. in units of alat)
               a(1) = (   1.000000   0.000000   0.000000 )  
               a(2) = (  -0.500000   0.866025   0.000000 )  
               a(3) = (   0.000000   0.000000   1.000000 )  

     reciprocal axes: (cart. coord. in units 2 pi/alat)
               b(1) = (  1.000000  0.577350  0.000000 )  
               b(2) = (  0.000000  1.154701  0.000000 )  
               b(3) = (  0.000000  0.000000  1.000000 )  


     PseudoPot. # 1 for  B read from file:
     ./pseudo/B.pbe-n-kjpaw_psl.0.1.UPF
     MD5 check sum: b4345a612e0782cca08559f453f3313f
     Pseudo is Projector augmented-wave + core cor, Zval =  3.0
     Generated using "atomic" code by A. Dal Corso  v.5.0.99 svn rev. 10869
     Shape of augmentation charge: BESSEL
     Using radial grid of 1059 points,  4 beta functions with: 
                l(1) =   0
                l(2) =   0
                l(3) =   1
                l(4) =   1
     Q(r) pseudized with 0 coefficients 


     PseudoPot. # 2 for  C read from file:
     ./pseudo/C.pbe-n-kjpaw_psl.1.0.0.UPF
     MD5 check sum: 5d2aebdfa2cae82b50a7e79e9516da0f
     Pseudo is Projector augmented-wave + core cor, Zval =  4.0
     Generated using "atomic" code by A. Dal Corso  v.5.1
     Shape of augmentation charge: PSQ
     Using radial grid of 1073 points,  4 beta functions with: 
                l(1) =   0
                l(2) =   0
                l(3) =   1
                l(4) =   1
     Q(r) pseudized with 0 coefficients 


     PseudoPot. # 3 for  N read from file:
     ./pseudo/N.pbe.theos.UPF
     MD5 check sum: 1fde47ee573fe9ed3106b9b4217eb757
     Pseudo is Ultrasoft + core correction, Zval =  5.0
     Generated using "atomic" code by A. Dal Corso  v.5.1
     Using radial grid of 1085 points,  4 beta functions with: 
                l(1) =   0
                l(2) =   0
                l(3) =   1
                l(4) =   1
     Q(r) pseudized with 0 coefficients 


     atomic species   valence    mass     pseudopotential
        B              3.00    10.81100      B( 1.00)
        C              4.00    12.01070      C( 1.00)
        N              5.00    14.00670      N( 1.00)

     Starting magnetic structure 
     atomic species   magnetization
        B            0.400
        C            0.000
        N            0.000

      6 Sym. Ops. (no inversion) found ( 4 have fractional translation)


                                    s                        frac. trans.

      isym =  1     identity                                     

 cryst.   s( 1) = (     1          0          0      )
                  (     0          1          0      )
                  (     0          0          1      )

 cart.    s( 1) = (  1.0000000  0.0000000  0.0000000 )
                  (  0.0000000  1.0000000  0.0000000 )
                  (  0.0000000  0.0000000  1.0000000 )


      isym =  2     120 deg rotation - cryst. axis [0,0,1]       

 cryst.   s( 2) = (     0          1          0      )    f =( -0.1250000 )
                  (    -1         -1          0      )       ( -0.1250000 )
                  (     0          0          1      )       (  0.0000000 )

 cart.    s( 2) = ( -0.5000000 -0.8660254  0.0000000 )    f =( -0.0625000 )
                  (  0.8660254 -0.5000000  0.0000000 )       ( -0.1082532 )
                  (  0.0000000  0.0000000  1.0000000 )       (  0.0000000 )


      isym =  3     120 deg rotation - cryst. axis [0,0,-1]      

 cryst.   s( 3) = (    -1         -1          0      )    f =( -0.0000000 )
                  (     1          0          0      )       ( -0.1250000 )
                  (     0          0          1      )       (  0.0000000 )

 cart.    s( 3) = ( -0.5000000  0.8660254  0.0000000 )    f =(  0.0625000 )
                  ( -0.8660254 -0.5000000  0.0000000 )       ( -0.1082532 )
                  (  0.0000000  0.0000000  1.0000000 )       (  0.0000000 )


      isym =  4     inv. 180 deg rotation - cart. axis [1,0,0]   

 cryst.   s( 4) = (    -1          0          0      )
                  (     1          1          0      )
                  (     0          0          1      )

 cart.    s( 4) = ( -1.0000000  0.0000000  0.0000000 )
                  (  0.0000000  1.0000000  0.0000000 )
                  (  0.0000000  0.0000000  1.0000000 )


      isym =  5     inv. 180 deg rotation - cryst. axis [0,1,0]  

 cryst.   s( 5) = (     1          1          0      )    f =( -0.0000000 )
                  (     0         -1          0      )       ( -0.1250000 )
                  (     0          0          1      )       (  0.0000000 )

 cart.    s( 5) = (  0.5000000  0.8660254  0.0000000 )    f =(  0.0625000 )
                  (  0.8660254 -0.5000000  0.0000000 )       ( -0.1082532 )
                  (  0.0000000  0.0000000  1.0000000 )       (  0.0000000 )


      isym =  6     inv. 180 deg rotation - cryst. axis [1,1,0]  

 cryst.   s( 6) = (     0         -1          0      )    f =( -0.1250000 )
                  (    -1          0          0      )       ( -0.1250000 )
                  (     0          0          1      )       (  0.0000000 )

 cart.    s( 6) = (  0.5000000 -0.8660254  0.0000000 )    f =( -0.0625000 )
                  ( -0.8660254 -0.5000000  0.0000000 )       ( -0.1082532 )
                  (  0.0000000  0.0000000  1.0000000 )       (  0.0000000 )


   Cartesian axes

     site n.     atom                  positions (alat units)
         1           N   tau(   1) = (   0.0625000   0.0360844   0.4981469  )
         2           B   tau(   2) = (  -0.0625000   0.1804220   0.4981469  )
         3           N   tau(   3) = (   0.0000000   0.1443376   0.4981469  )
         4           B   tau(   4) = (  -0.1250000   0.2886751   0.4981469  )
         5           N   tau(   5) = (  -0.0625000   0.2525907   0.4981469  )
         6           B   tau(   6) = (  -0.1875000   0.3969283   0.4981469  )
         7           N   tau(   7) = (  -0.1250000   0.3608439   0.4981469  )
         8           B   tau(   8) = (  -0.2500000   0.5051815   0.4981469  )
         9           N   tau(   9) = (  -0.1875000   0.4690971   0.4981469  )
        10           B   tau(  10) = (  -0.3125000   0.6134347   0.4981469  )
        11           N   tau(  11) = (  -0.2500000   0.5773503   0.4981469  )
        12           B   tau(  12) = (  -0.3750000   0.7216878   0.4981469  )
        13           N   tau(  13) = (  -0.3125000   0.6856034   0.4981469  )
        14           B   tau(  14) = (  -0.4375000   0.8299410   0.4981469  )
        15           N   tau(  15) = (  -0.3750000   0.7938566   0.4981469  )
        16           B   tau(  16) = (   0.1250000   0.0721688   0.4981469  )
        17           N   tau(  17) = (   0.1875000   0.0360844   0.4981469  )
        18           B   tau(  18) = (   0.0625000   0.1804220   0.4981469  )
        19           N   tau(  19) = (   0.1250000   0.1443376   0.4981469  )
        20           B   tau(  20) = (   0.0000000   0.2886751   0.4981469  )
        21           N   tau(  21) = (   0.0625000   0.2525907   0.4981469  )
        22           B   tau(  22) = (  -0.0625000   0.3969283   0.4981469  )
        23           N   tau(  23) = (   0.0000000   0.3608439   0.4981469  )
        24           B   tau(  24) = (  -0.1250000   0.5051815   0.4981469  )
        25           N   tau(  25) = (  -0.0625000   0.4690971   0.4981469  )
        26           B   tau(  26) = (  -0.1875000   0.6134347   0.4981469  )
        27           N   tau(  27) = (  -0.1250000   0.5773503   0.4981469  )
        28           B   tau(  28) = (  -0.2500000   0.7216878   0.4981469  )
        29           N   tau(  29) = (  -0.1875000   0.6856034   0.4981469  )
        30           B   tau(  30) = (  -0.3125000   0.8299410   0.4981469  )
        31           N   tau(  31) = (  -0.2500000   0.7938566   0.4981469  )
        32           B   tau(  32) = (   0.2500000   0.0721688   0.4981469  )
        33           N   tau(  33) = (   0.3125000   0.0360844   0.4981469  )
        34           B   tau(  34) = (   0.1875000   0.1804220   0.4981469  )
        35           N   tau(  35) = (   0.2500000   0.1443376   0.4981469  )
        36           B   tau(  36) = (   0.1250000   0.2886751   0.4981469  )
        37           N   tau(  37) = (   0.1875000   0.2525907   0.4981469  )
        38           B   tau(  38) = (   0.0625000   0.3969283   0.4981469  )
        39           N   tau(  39) = (   0.1250000   0.3608439   0.4981469  )
        40           B   tau(  40) = (   0.0000000   0.5051815   0.4981469  )
        41           N   tau(  41) = (   0.0625000   0.4690971   0.4981469  )
        42           B   tau(  42) = (  -0.0625000   0.6134347   0.4981469  )
        43           N   tau(  43) = (   0.0000000   0.5773503   0.4981469  )
        44           B   tau(  44) = (  -0.1250000   0.7216878   0.4981469  )
        45           N   tau(  45) = (  -0.0625000   0.6856034   0.4981469  )
        46           B   tau(  46) = (  -0.1875000   0.8299410   0.4981469  )
        47           N   tau(  47) = (  -0.1250000   0.7938566   0.4981469  )
        48           B   tau(  48) = (   0.3750000   0.0721688   0.4981469  )
        49           N   tau(  49) = (   0.4375000   0.0360844   0.4981469  )
        50           B   tau(  50) = (   0.3125000   0.1804220   0.4981469  )
        51           N   tau(  51) = (   0.3750000   0.1443376   0.4981469  )
        52           B   tau(  52) = (   0.2500000   0.2886751   0.4981469  )
        53           N   tau(  53) = (   0.3125000   0.2525907   0.4981469  )
        54           B   tau(  54) = (   0.1875000   0.3969283   0.4981469  )
        55           N   tau(  55) = (   0.2500000   0.3608439   0.4981469  )
        56           B   tau(  56) = (   0.1250000   0.5051815   0.4981469  )
        57           N   tau(  57) = (   0.1875000   0.4690971   0.4981469  )
        58           B   tau(  58) = (   0.0625000   0.6134347   0.4981469  )
        59           N   tau(  59) = (   0.1250000   0.5773503   0.4981469  )
        60           B   tau(  60) = (   0.0000000   0.7216878   0.4981469  )
        61           N   tau(  61) = (   0.0625000   0.6856034   0.4981469  )
        62           B   tau(  62) = (  -0.0625000   0.8299410   0.4981469  )
        63           N   tau(  63) = (   0.0000000   0.7938566   0.4981469  )
        64           B   tau(  64) = (   0.5000000   0.0721688   0.4981469  )
        65           N   tau(  65) = (   0.5625000   0.0360844   0.4981469  )
        66           B   tau(  66) = (   0.4375000   0.1804220   0.4981469  )
        67           N   tau(  67) = (   0.5000000   0.1443376   0.4981469  )
        68           B   tau(  68) = (   0.3750000   0.2886751   0.4981469  )
        69           N   tau(  69) = (   0.4375000   0.2525907   0.4981469  )
        70           B   tau(  70) = (   0.3125000   0.3969283   0.4981469  )
        71           N   tau(  71) = (   0.3750000   0.3608439   0.4981469  )
        72           B   tau(  72) = (   0.2500000   0.5051815   0.4981469  )
        73           N   tau(  73) = (   0.3125000   0.4690971   0.4981469  )
        74           B   tau(  74) = (   0.1875000   0.6134347   0.4981469  )
        75           N   tau(  75) = (   0.2500000   0.5773503   0.4981469  )
        76           B   tau(  76) = (   0.1250000   0.7216878   0.4981469  )
        77           N   tau(  77) = (   0.1875000   0.6856034   0.4981469  )
        78           B   tau(  78) = (   0.0625000   0.8299410   0.4981469  )
        79           N   tau(  79) = (   0.1250000   0.7938566   0.4981469  )
        80           B   tau(  80) = (   0.6250000   0.0721688   0.4981469  )
        81           N   tau(  81) = (   0.6875000   0.0360844   0.4981469  )
        82           B   tau(  82) = (   0.5625000   0.1804220   0.4981469  )
        83           N   tau(  83) = (   0.6250000   0.1443376   0.4981469  )
        84           B   tau(  84) = (   0.5000000   0.2886751   0.4981469  )
        85           N   tau(  85) = (   0.5625000   0.2525907   0.4981469  )
        86           B   tau(  86) = (   0.4375000   0.3969283   0.4981469  )
        87           N   tau(  87) = (   0.5000000   0.3608439   0.4981469  )
        88           B   tau(  88) = (   0.3750000   0.5051815   0.4981469  )
        89           N   tau(  89) = (   0.4375000   0.4690971   0.4981469  )
        90           B   tau(  90) = (   0.3125000   0.6134347   0.4981469  )
        91           N   tau(  91) = (   0.3750000   0.5773503   0.4981469  )
        92           B   tau(  92) = (   0.2500000   0.7216878   0.4981469  )
        93           N   tau(  93) = (   0.3125000   0.6856034   0.4981469  )
        94           B   tau(  94) = (   0.1875000   0.8299410   0.4981469  )
        95           N   tau(  95) = (   0.2500000   0.7938566   0.4981469  )
        96           B   tau(  96) = (   0.7500000   0.0721688   0.4981469  )
        97           N   tau(  97) = (   0.8125000   0.0360844   0.4981469  )
        98           B   tau(  98) = (   0.6875000   0.1804220   0.4981469  )
        99           N   tau(  99) = (   0.7500000   0.1443376   0.4981469  )
       100           B   tau( 100) = (   0.6250000   0.2886751   0.4981469  )
       101           N   tau( 101) = (   0.6875000   0.2525907   0.4981469  )
       102           B   tau( 102) = (   0.5625000   0.3969283   0.4981469  )
       103           N   tau( 103) = (   0.6250000   0.3608439   0.4981469  )
       104           B   tau( 104) = (   0.5000000   0.5051815   0.4981469  )
       105           N   tau( 105) = (   0.5625000   0.4690971   0.4981469  )
       106           B   tau( 106) = (   0.4375000   0.6134347   0.4981469  )
       107           N   tau( 107) = (   0.5000000   0.5773503   0.4981469  )
       108           B   tau( 108) = (   0.3750000   0.7216878   0.4981469  )
       109           N   tau( 109) = (   0.4375000   0.6856034   0.4981469  )
       110           B   tau( 110) = (   0.3125000   0.8299410   0.4981469  )
       111           N   tau( 111) = (   0.3750000   0.7938566   0.4981469  )
       112           B   tau( 112) = (   0.8750000   0.0721688   0.4981469  )
       113           N   tau( 113) = (   0.9375000   0.0360844   0.4981469  )
       114           B   tau( 114) = (   0.8125000   0.1804220   0.4981469  )
       115           N   tau( 115) = (   0.8750000   0.1443376   0.4981469  )
       116           B   tau( 116) = (   0.7500000   0.2886751   0.4981469  )
       117           N   tau( 117) = (   0.8125000   0.2525907   0.4981469  )
       118           B   tau( 118) = (   0.6875000   0.3969283   0.4981469  )
       119           N   tau( 119) = (   0.7500000   0.3608439   0.4981469  )
       120           B   tau( 120) = (   0.6250000   0.5051815   0.4981469  )
       121           N   tau( 121) = (   0.6875000   0.4690971   0.4981469  )
       122           B   tau( 122) = (   0.5625000   0.6134347   0.4981469  )
       123           N   tau( 123) = (   0.6250000   0.5773503   0.4981469  )
       124           B   tau( 124) = (   0.5000000   0.7216878   0.4981469  )
       125           N   tau( 125) = (   0.5625000   0.6856034   0.4981469  )
       126           B   tau( 126) = (   0.4375000   0.8299410   0.4981469  )
       127           N   tau( 127) = (   0.5000000   0.7938566   0.4981469  )
       128           C   tau( 128) = (   0.0000000   0.0721688   0.4981469  )

   Crystallographic axes

     site n.     atom                  positions (cryst. coord.)
         1           N   tau(   1) = (  0.0833333  0.0416667  0.4981469  )
         2           B   tau(   2) = (  0.0416667  0.2083333  0.4981469  )
         3           N   tau(   3) = (  0.0833333  0.1666667  0.4981469  )
         4           B   tau(   4) = (  0.0416667  0.3333333  0.4981469  )
         5           N   tau(   5) = (  0.0833333  0.2916667  0.4981469  )
         6           B   tau(   6) = (  0.0416667  0.4583333  0.4981469  )
         7           N   tau(   7) = (  0.0833333  0.4166667  0.4981469  )
         8           B   tau(   8) = (  0.0416667  0.5833333  0.4981469  )
         9           N   tau(   9) = (  0.0833333  0.5416667  0.4981469  )
        10           B   tau(  10) = (  0.0416667  0.7083333  0.4981469  )
        11           N   tau(  11) = (  0.0833333  0.6666667  0.4981469  )
        12           B   tau(  12) = (  0.0416667  0.8333333  0.4981469  )
        13           N   tau(  13) = (  0.0833333  0.7916667  0.4981469  )
        14           B   tau(  14) = (  0.0416667  0.9583333  0.4981469  )
        15           N   tau(  15) = (  0.0833333  0.9166667  0.4981469  )
        16           B   tau(  16) = (  0.1666667  0.0833333  0.4981469  )
        17           N   tau(  17) = (  0.2083333  0.0416667  0.4981469  )
        18           B   tau(  18) = (  0.1666667  0.2083333  0.4981469  )
        19           N   tau(  19) = (  0.2083333  0.1666667  0.4981469  )
        20           B   tau(  20) = (  0.1666667  0.3333333  0.4981469  )
        21           N   tau(  21) = (  0.2083333  0.2916667  0.4981469  )
        22           B   tau(  22) = (  0.1666667  0.4583333  0.4981469  )
        23           N   tau(  23) = (  0.2083333  0.4166667  0.4981469  )
        24           B   tau(  24) = (  0.1666667  0.5833333  0.4981469  )
        25           N   tau(  25) = (  0.2083333  0.5416667  0.4981469  )
        26           B   tau(  26) = (  0.1666667  0.7083333  0.4981469  )
        27           N   tau(  27) = (  0.2083333  0.6666667  0.4981469  )
        28           B   tau(  28) = (  0.1666667  0.8333333  0.4981469  )
        29           N   tau(  29) = (  0.2083333  0.7916667  0.4981469  )
        30           B   tau(  30) = (  0.1666667  0.9583333  0.4981469  )
        31           N   tau(  31) = (  0.2083333  0.9166667  0.4981469  )
        32           B   tau(  32) = (  0.2916667  0.0833333  0.4981469  )
        33           N   tau(  33) = (  0.3333333  0.0416667  0.4981469  )
        34           B   tau(  34) = (  0.2916667  0.2083333  0.4981469  )
        35           N   tau(  35) = (  0.3333333  0.1666667  0.4981469  )
        36           B   tau(  36) = (  0.2916667  0.3333333  0.4981469  )
        37           N   tau(  37) = (  0.3333333  0.2916667  0.4981469  )
        38           B   tau(  38) = (  0.2916667  0.4583333  0.4981469  )
        39           N   tau(  39) = (  0.3333333  0.4166667  0.4981469  )
        40           B   tau(  40) = (  0.2916667  0.5833333  0.4981469  )
        41           N   tau(  41) = (  0.3333333  0.5416667  0.4981469  )
        42           B   tau(  42) = (  0.2916667  0.7083333  0.4981469  )
        43           N   tau(  43) = (  0.3333333  0.6666667  0.4981469  )
        44           B   tau(  44) = (  0.2916667  0.8333333  0.4981469  )
        45           N   tau(  45) = (  0.3333333  0.7916667  0.4981469  )
        46           B   tau(  46) = (  0.2916667  0.9583333  0.4981469  )
        47           N   tau(  47) = (  0.3333333  0.9166667  0.4981469  )
        48           B   tau(  48) = (  0.4166667  0.0833333  0.4981469  )
        49           N   tau(  49) = (  0.4583333  0.0416667  0.4981469  )
        50           B   tau(  50) = (  0.4166667  0.2083333  0.4981469  )
        51           N   tau(  51) = (  0.4583333  0.1666667  0.4981469  )
        52           B   tau(  52) = (  0.4166667  0.3333333  0.4981469  )
        53           N   tau(  53) = (  0.4583333  0.2916667  0.4981469  )
        54           B   tau(  54) = (  0.4166667  0.4583333  0.4981469  )
        55           N   tau(  55) = (  0.4583333  0.4166667  0.4981469  )
        56           B   tau(  56) = (  0.4166667  0.5833333  0.4981469  )
        57           N   tau(  57) = (  0.4583333  0.5416667  0.4981469  )
        58           B   tau(  58) = (  0.4166667  0.7083333  0.4981469  )
        59           N   tau(  59) = (  0.4583333  0.6666667  0.4981469  )
        60           B   tau(  60) = (  0.4166667  0.8333333  0.4981469  )
        61           N   tau(  61) = (  0.4583333  0.7916667  0.4981469  )
        62           B   tau(  62) = (  0.4166667  0.9583333  0.4981469  )
        63           N   tau(  63) = (  0.4583333  0.9166667  0.4981469  )
        64           B   tau(  64) = (  0.5416667  0.0833333  0.4981469  )
        65           N   tau(  65) = (  0.5833333  0.0416667  0.4981469  )
        66           B   tau(  66) = (  0.5416667  0.2083333  0.4981469  )
        67           N   tau(  67) = (  0.5833333  0.1666667  0.4981469  )
        68           B   tau(  68) = (  0.5416667  0.3333333  0.4981469  )
        69           N   tau(  69) = (  0.5833333  0.2916667  0.4981469  )
        70           B   tau(  70) = (  0.5416667  0.4583333  0.4981469  )
        71           N   tau(  71) = (  0.5833333  0.4166667  0.4981469  )
        72           B   tau(  72) = (  0.5416667  0.5833333  0.4981469  )
        73           N   tau(  73) = (  0.5833333  0.5416667  0.4981469  )
        74           B   tau(  74) = (  0.5416667  0.7083333  0.4981469  )
        75           N   tau(  75) = (  0.5833333  0.6666667  0.4981469  )
        76           B   tau(  76) = (  0.5416667  0.8333333  0.4981469  )
        77           N   tau(  77) = (  0.5833333  0.7916667  0.4981469  )
        78           B   tau(  78) = (  0.5416667  0.9583333  0.4981469  )
        79           N   tau(  79) = (  0.5833333  0.9166667  0.4981469  )
        80           B   tau(  80) = (  0.6666667  0.0833333  0.4981469  )
        81           N   tau(  81) = (  0.7083333  0.0416667  0.4981469  )
        82           B   tau(  82) = (  0.6666667  0.2083333  0.4981469  )
        83           N   tau(  83) = (  0.7083333  0.1666667  0.4981469  )
        84           B   tau(  84) = (  0.6666667  0.3333333  0.4981469  )
        85           N   tau(  85) = (  0.7083333  0.2916667  0.4981469  )
        86           B   tau(  86) = (  0.6666667  0.4583333  0.4981469  )
        87           N   tau(  87) = (  0.7083333  0.4166667  0.4981469  )
        88           B   tau(  88) = (  0.6666667  0.5833333  0.4981469  )
        89           N   tau(  89) = (  0.7083333  0.5416667  0.4981469  )
        90           B   tau(  90) = (  0.6666667  0.7083333  0.4981469  )
        91           N   tau(  91) = (  0.7083333  0.6666667  0.4981469  )
        92           B   tau(  92) = (  0.6666667  0.8333333  0.4981469  )
        93           N   tau(  93) = (  0.7083333  0.7916667  0.4981469  )
        94           B   tau(  94) = (  0.6666667  0.9583333  0.4981469  )
        95           N   tau(  95) = (  0.7083333  0.9166667  0.4981469  )
        96           B   tau(  96) = (  0.7916667  0.0833333  0.4981469  )
        97           N   tau(  97) = (  0.8333333  0.0416667  0.4981469  )
        98           B   tau(  98) = (  0.7916667  0.2083333  0.4981469  )
        99           N   tau(  99) = (  0.8333333  0.1666667  0.4981469  )
       100           B   tau( 100) = (  0.7916667  0.3333333  0.4981469  )
       101           N   tau( 101) = (  0.8333333  0.2916667  0.4981469  )
       102           B   tau( 102) = (  0.7916667  0.4583333  0.4981469  )
       103           N   tau( 103) = (  0.8333333  0.4166667  0.4981469  )
       104           B   tau( 104) = (  0.7916667  0.5833333  0.4981469  )
       105           N   tau( 105) = (  0.8333333  0.5416667  0.4981469  )
       106           B   tau( 106) = (  0.7916667  0.7083333  0.4981469  )
       107           N   tau( 107) = (  0.8333333  0.6666667  0.4981469  )
       108           B   tau( 108) = (  0.7916667  0.8333333  0.4981469  )
       109           N   tau( 109) = (  0.8333333  0.7916667  0.4981469  )
       110           B   tau( 110) = (  0.7916667  0.9583333  0.4981469  )
       111           N   tau( 111) = (  0.8333333  0.9166667  0.4981469  )
       112           B   tau( 112) = (  0.9166667  0.0833333  0.4981469  )
       113           N   tau( 113) = (  0.9583333  0.0416667  0.4981469  )
       114           B   tau( 114) = (  0.9166667  0.2083333  0.4981469  )
       115           N   tau( 115) = (  0.9583333  0.1666667  0.4981469  )
       116           B   tau( 116) = (  0.9166667  0.3333333  0.4981469  )
       117           N   tau( 117) = (  0.9583333  0.2916667  0.4981469  )
       118           B   tau( 118) = (  0.9166667  0.4583333  0.4981469  )
       119           N   tau( 119) = (  0.9583333  0.4166667  0.4981469  )
       120           B   tau( 120) = (  0.9166667  0.5833333  0.4981469  )
       121           N   tau( 121) = (  0.9583333  0.5416667  0.4981469  )
       122           B   tau( 122) = (  0.9166667  0.7083333  0.4981469  )
       123           N   tau( 123) = (  0.9583333  0.6666667  0.4981469  )
       124           B   tau( 124) = (  0.9166667  0.8333333  0.4981469  )
       125           N   tau( 125) = (  0.9583333  0.7916667  0.4981469  )
       126           B   tau( 126) = (  0.9166667  0.9583333  0.4981469  )
       127           N   tau( 127) = (  0.9583333  0.9166667  0.4981469  )
       128           C   tau( 128) = (  0.0416667  0.0833333  0.4981469  )

     number of k points=     2  Marzari-Vanderbilt smearing, width (Ry)=  0.0050
                       cart. coord. in units 2pi/alat
        k(    1) = (   0.0000000   0.0000000   0.0000000), wk =   0.2500000
        k(    2) = (   0.0000000  -0.5773503   0.0000000), wk =   0.7500000

                       cryst. coord.
        k(    1) = (   0.0000000   0.0000000   0.0000000), wk =   0.2500000
        k(    2) = (   0.0000000  -0.5000000   0.0000000), wk =   0.7500000

     Dense  grid:  7368589 G-vectors     FFT dimensions: ( 256, 256, 256)

     Smooth grid:  2604557 G-vectors     FFT dimensions: ( 180, 180, 180)

     Estimated max dynamical RAM per process >     748.76MB

     Estimated total allocated dynamical RAM >   62896.25MB
     Generating pointlists ...
     new r_m :   0.0298 (alat units)  1.1293 (a.u.) for type    1
     new r_m :   0.0298 (alat units)  1.1293 (a.u.) for type    2
     new r_m :   0.0298 (alat units)  1.1293 (a.u.) for type    3

     Check: negative/imaginary core charge=   -0.000001    0.000000

     Initial potential from superposition of free atoms
     Check: negative starting charge=(component1):   -0.000735
     Check: negative starting charge=(component2):   -0.000701

     starting charge  512.98161, renormalised to  512.00000

     negative rho (up, down):  7.340E-04 6.996E-04
     Starting wfc are  512 randomized atomic wfcs
     Checking if some PAW data can be deallocated... 
       node    0, deallocated PAW data for type:  2
       node    1, deallocated PAW data for type:  2
       node    2, deallocated PAW data for type:  2
       node    3, deallocated PAW data for type:  2
       node    4, deallocated PAW data for type:  2
       node    5, deallocated PAW data for type:  2
       node    6, deallocated PAW data for type:  2
       node    7, deallocated PAW data for type:  2
       node    8, deallocated PAW data for type:  2
       node    9, deallocated PAW data for type:  2
       node   10, deallocated PAW data for type:  2
       node   11, deallocated PAW data for type:  2
       node   12, deallocated PAW data for type:  2
       node   13, deallocated PAW data for type:  2
       node   14, deallocated PAW data for type:  2
       node   15, deallocated PAW data for type:  2
       node   16, deallocated PAW data for type:  2
       node   17, deallocated PAW data for type:  2
       node   18, deallocated PAW data for type:  2
       node   19, deallocated PAW data for type:  2
       node   20, deallocated PAW data for type:  2
       node   21, deallocated PAW data for type:  2
       node   22, deallocated PAW data for type:  2
       node   23, deallocated PAW data for type:  2
       node   24, deallocated PAW data for type:  2
       node   25, deallocated PAW data for type:  2
       node   26, deallocated PAW data for type:  2
       node   27, deallocated PAW data for type:  2
       node   28, deallocated PAW data for type:  2
       node   29, deallocated PAW data for type:  2
       node   30, deallocated PAW data for type:  2
       node   31, deallocated PAW data for type:  2
       node   32, deallocated PAW data for type:  2
       node   33, deallocated PAW data for type:  2
       node   34, deallocated PAW data for type:  2
       node   35, deallocated PAW data for type:  2
       node   36, deallocated PAW data for type:  2
       node   37, deallocated PAW data for type:  2
       node   38, deallocated PAW data for type:  2
       node   39, deallocated PAW data for type:  2
       node   40, deallocated PAW data for type:  2
       node   41, deallocated PAW data for type:  2
       node   42, deallocated PAW data for type:  2
       node   43, deallocated PAW data for type:  2
       node   44, deallocated PAW data for type:  1
       node   44, deallocated PAW data for type:  2
       node   45, deallocated PAW data for type:  2
       node   46, deallocated PAW data for type:  1
       node   46, deallocated PAW data for type:  2
       node   47, deallocated PAW data for type:  2
       node   48, deallocated PAW data for type:  1
       node   48, deallocated PAW data for type:  2
       node   49, deallocated PAW data for type:  2
       node   50, deallocated PAW data for type:  1
       node   50, deallocated PAW data for type:  2
       node   51, deallocated PAW data for type:  2
       node   52, deallocated PAW data for type:  1
       node   52, deallocated PAW data for type:  2
       node   53, deallocated PAW data for type:  2
       node   54, deallocated PAW data for type:  1
       node   54, deallocated PAW data for type:  2
       node   55, deallocated PAW data for type:  2
       node   56, deallocated PAW data for type:  1
       node   56, deallocated PAW data for type:  2
       node   57, deallocated PAW data for type:  2
       node   58, deallocated PAW data for type:  1
       node   58, deallocated PAW data for type:  2
       node   59, deallocated PAW data for type:  2
       node   60, deallocated PAW data for type:  1
       node   60, deallocated PAW data for type:  2
       node   61, deallocated PAW data for type:  2
       node   62, deallocated PAW data for type:  1
       node   62, deallocated PAW data for type:  2
       node   63, deallocated PAW data for type:  2
       node   64, deallocated PAW data for type:  1
       node   64, deallocated PAW data for type:  2
       node   65, deallocated PAW data for type:  2
       node   66, deallocated PAW data for type:  1
       node   66, deallocated PAW data for type:  2
       node   67, deallocated PAW data for type:  2
       node   68, deallocated PAW data for type:  1
       node   68, deallocated PAW data for type:  2
       node   69, deallocated PAW data for type:  2
       node   70, deallocated PAW data for type:  1
       node   70, deallocated PAW data for type:  2
       node   71, deallocated PAW data for type:  2
       node   72, deallocated PAW data for type:  1
       node   72, deallocated PAW data for type:  2
       node   73, deallocated PAW data for type:  2
       node   74, deallocated PAW data for type:  1
       node   74, deallocated PAW data for type:  2
       node   75, deallocated PAW data for type:  2
       node   76, deallocated PAW data for type:  1
       node   76, deallocated PAW data for type:  2
       node   77, deallocated PAW data for type:  2
       node   78, deallocated PAW data for type:  1
       node   78, deallocated PAW data for type:  2
       node   79, deallocated PAW data for type:  2
       node   80, deallocated PAW data for type:  1
       node   80, deallocated PAW data for type:  2
       node   81, deallocated PAW data for type:  2
       node   82, deallocated PAW data for type:  1
       node   82, deallocated PAW data for type:  2
       node   83, deallocated PAW data for type:  1

     total cpu time spent up to now is       28.3 secs

     per-process dynamical memory:   452.6 Mb

     Self-consistent Calculation

     iteration #  1     ecut=    55.00 Ry     beta=0.30
     Davidson diagonalization with overlap
     ethr =  1.00E-02,  avg # of iterations =  3.0

     negative rho (up, down):  5.214E-04 5.763E-04

     total cpu time spent up to now is       67.8 secs

     total energy              =   -2041.62560337 Ry
     Harris-Foulkes estimate   =   -2051.63368791 Ry
     estimated scf accuracy    <      27.84284513 Ry

     total magnetization       =    -0.00 Bohr mag/cell
     absolute magnetization    =    10.73 Bohr mag/cell

     iteration #  2     ecut=    55.00 Ry     beta=0.30
     Davidson diagonalization with overlap
     ethr =  5.44E-03,  avg # of iterations =  2.5

     negative rho (up, down):  1.006E-03 1.091E-03

     total cpu time spent up to now is       95.5 secs

     total energy              =   -2042.62230017 Ry
     Harris-Foulkes estimate   =   -2044.12811469 Ry
     estimated scf accuracy    <       4.73599788 Ry

     total magnetization       =     0.00 Bohr mag/cell
     absolute magnetization    =     9.97 Bohr mag/cell

     iteration #  3     ecut=    55.00 Ry     beta=0.30
     Davidson diagonalization with overlap
     ethr =  9.25E-04,  avg # of iterations = 17.5

     negative rho (up, down):  1.614E-03 1.633E-03

     total cpu time spent up to now is      172.0 secs

     total energy              =   -2043.80234582 Ry
     Harris-Foulkes estimate   =   -2044.25956918 Ry
     estimated scf accuracy    <       1.24183964 Ry

     total magnetization       =     0.07 Bohr mag/cell
     absolute magnetization    =     7.42 Bohr mag/cell

     iteration #  4     ecut=    55.00 Ry     beta=0.30
     Davidson diagonalization with overlap
     ethr =  2.43E-04,  avg # of iterations = 13.5

     negative rho (up, down):  1.949E-03 1.973E-03

     total cpu time spent up to now is      239.1 secs

     total energy              =   -2043.94363562 Ry
     Harris-Foulkes estimate   =   -2044.63751809 Ry
     estimated scf accuracy    <       1.70302078 Ry

     total magnetization       =     0.00 Bohr mag/cell
     absolute magnetization    =     4.34 Bohr mag/cell

     iteration #  5     ecut=    55.00 Ry     beta=0.30
     Davidson diagonalization with overlap
     ethr =  2.43E-04,  avg # of iterations =  3.0

     negative rho (up, down):  2.019E-03 2.068E-03

     total cpu time spent up to now is      274.6 secs

     total energy              =   -2044.16695913 Ry
     Harris-Foulkes estimate   =   -2044.17071015 Ry
     estimated scf accuracy    <       0.08043284 Ry

     total magnetization       =     0.00 Bohr mag/cell
     absolute magnetization    =     2.79 Bohr mag/cell

     iteration #  6     ecut=    55.00 Ry     beta=0.30
     Davidson diagonalization with overlap
     c_bands:  3 eigenvalues not converged
     ethr =  1.57E-05,  avg # of iterations = 18.5

     negative rho (up, down):  2.295E-03 2.298E-03

     total cpu time spent up to now is      354.4 secs

     total energy              =   -2044.20407117 Ry
     Harris-Foulkes estimate   =   -2044.19535479 Ry
     estimated scf accuracy    <       0.01529139 Ry

     total magnetization       =    -0.25 Bohr mag/cell
     absolute magnetization    =     2.86 Bohr mag/cell

     iteration #  7     ecut=    55.00 Ry     beta=0.30
     Davidson diagonalization with overlap
     c_bands:  2 eigenvalues not converged
     c_bands:  1 eigenvalues not converged
     ethr =  2.99E-06,  avg # of iterations = 20.0

     negative rho (up, down):  2.354E-03 2.352E-03

     total cpu time spent up to now is      430.7 secs

     total energy              =   -2044.21220091 Ry
     Harris-Foulkes estimate   =   -2044.21138439 Ry
     estimated scf accuracy    <       0.00270900 Ry

     total magnetization       =    -0.00 Bohr mag/cell
     absolute magnetization    =     1.36 Bohr mag/cell

     iteration #  8     ecut=    55.00 Ry     beta=0.30
     Davidson diagonalization with overlap
     ethr =  5.29E-07,  avg # of iterations = 13.5

     negative rho (up, down):  2.358E-03 2.370E-03

     total cpu time spent up to now is      477.6 secs

     total energy              =   -2044.21354945 Ry
     Harris-Foulkes estimate   =   -2044.21268486 Ry
     estimated scf accuracy    <       0.00079021 Ry

     total magnetization       =    -0.00 Bohr mag/cell
     absolute magnetization    =     1.01 Bohr mag/cell

     iteration #  9     ecut=    55.00 Ry     beta=0.30
     Davidson diagonalization with overlap
     ethr =  1.54E-07,  avg # of iterations =  7.2

     negative rho (up, down):  2.368E-03 2.382E-03

     total cpu time spent up to now is      541.5 secs

     total energy              =   -2044.21421017 Ry
     Harris-Foulkes estimate   =   -2044.21407725 Ry
     estimated scf accuracy    <       0.00067975 Ry

     total magnetization       =     0.00 Bohr mag/cell
     absolute magnetization    =     0.51 Bohr mag/cell

     iteration # 10     ecut=    55.00 Ry     beta=0.30
     Davidson diagonalization with overlap
     ethr =  1.33E-07,  avg # of iterations =  2.0

     negative rho (up, down):  2.379E-03 2.390E-03

     total cpu time spent up to now is      577.6 secs

     total energy              =   -2044.21425489 Ry
     Harris-Foulkes estimate   =   -2044.21430119 Ry
     estimated scf accuracy    <       0.00022213 Ry

     total magnetization       =    -0.00 Bohr mag/cell
     absolute magnetization    =     0.29 Bohr mag/cell

     iteration # 11     ecut=    55.00 Ry     beta=0.30
     Davidson diagonalization with overlap
     ethr =  4.34E-08,  avg # of iterations =  3.0

     negative rho (up, down):  2.390E-03 2.399E-03

     total cpu time spent up to now is      623.0 secs

     total energy              =   -2044.21437924 Ry
     Harris-Foulkes estimate   =   -2044.21438141 Ry
     estimated scf accuracy    <       0.00001624 Ry

     total magnetization       =     0.00 Bohr mag/cell
     absolute magnetization    =     0.04 Bohr mag/cell

     iteration # 12     ecut=    55.00 Ry     beta=0.30
     Davidson diagonalization with overlap
     ethr =  3.17E-09,  avg # of iterations =  2.5

     negative rho (up, down):  2.400E-03 2.405E-03

     total cpu time spent up to now is      658.6 secs

     total energy              =   -2044.21438187 Ry
     Harris-Foulkes estimate   =   -2044.21438231 Ry
     estimated scf accuracy    <       0.00000386 Ry

     total magnetization       =     0.00 Bohr mag/cell
     absolute magnetization    =     0.03 Bohr mag/cell

     iteration # 13     ecut=    55.00 Ry     beta=0.30
     Davidson diagonalization with overlap
     ethr =  7.53E-10,  avg # of iterations =  3.0

     negative rho (up, down):  2.406E-03 2.410E-03

     total cpu time spent up to now is      694.8 secs

     total energy              =   -2044.21438271 Ry
     Harris-Foulkes estimate   =   -2044.21438254 Ry
     estimated scf accuracy    <       0.00000054 Ry

     total magnetization       =    -0.00 Bohr mag/cell
     absolute magnetization    =     0.01 Bohr mag/cell

     iteration # 14     ecut=    55.00 Ry     beta=0.30
     Davidson diagonalization with overlap
     ethr =  1.06E-10,  avg # of iterations =  3.8

     negative rho (up, down):  2.411E-03 2.413E-03

     total cpu time spent up to now is      740.3 secs

     total energy              =   -2044.21438308 Ry
     Harris-Foulkes estimate   =   -2044.21438305 Ry
     estimated scf accuracy    <       0.00000003 Ry

     total magnetization       =     0.00 Bohr mag/cell
     absolute magnetization    =     0.00 Bohr mag/cell

     iteration # 15     ecut=    55.00 Ry     beta=0.30
     Davidson diagonalization with overlap
     ethr =  6.80E-12,  avg # of iterations =  3.0

     negative rho (up, down):  2.414E-03 2.416E-03

     total cpu time spent up to now is      775.5 secs

     total energy              =   -2044.21438309 Ry
     Harris-Foulkes estimate   =   -2044.21438309 Ry
     estimated scf accuracy    <       0.00000001 Ry

     total magnetization       =    -0.00 Bohr mag/cell
     absolute magnetization    =     0.00 Bohr mag/cell

     iteration # 16     ecut=    55.00 Ry     beta=0.30
     Davidson diagonalization with overlap
     ethr =  2.03E-12,  avg # of iterations =  4.0

     negative rho (up, down):  2.416E-03 2.417E-03

     total cpu time spent up to now is      819.3 secs

     total energy              =   -2044.21438310 Ry
     Harris-Foulkes estimate   =   -2044.21438310 Ry
     estimated scf accuracy    <          2.1E-09 Ry

     total magnetization       =    -0.00 Bohr mag/cell
     absolute magnetization    =     0.00 Bohr mag/cell

     iteration # 17     ecut=    55.00 Ry     beta=0.30
     Davidson diagonalization with overlap
     ethr =  4.10E-13,  avg # of iterations =  4.0

     negative rho (up, down):  2.421E-03 2.421E-03
 
     Magnetic moment per site:
     atom:    1    charge:    2.8347    magn:   -0.0000    constr:    0.0000
     atom:    2    charge:    0.8824    magn:   -0.0000    constr:    0.0000
     atom:    3    charge:    2.8347    magn:   -0.0000    constr:    0.0000
     atom:    4    charge:    0.8811    magn:   -0.0000    constr:    0.0000
     atom:    5    charge:    2.8683    magn:    0.0000    constr:    0.0000
     atom:    6    charge:    0.8814    magn:   -0.0000    constr:    0.0000
     atom:    7    charge:    2.8695    magn:    0.0000    constr:    0.0000
     atom:    8    charge:    0.8815    magn:    0.0000    constr:    0.0000
     atom:    9    charge:    2.8697    magn:    0.0000    constr:    0.0000
     atom:   10    charge:    0.8814    magn:   -0.0000    constr:    0.0000
     atom:   11    charge:    2.8697    magn:    0.0000    constr:    0.0000
     atom:   12    charge:    0.8811    magn:   -0.0000    constr:    0.0000
     atom:   13    charge:    2.8695    magn:    0.0000    constr:    0.0000
     atom:   14    charge:    0.8824    magn:   -0.0000    constr:    0.0000
     atom:   15    charge:    2.8683    magn:    0.0000    constr:    0.0000
     atom:   16    charge:    0.8824    magn:   -0.0000    constr:    0.0000
     atom:   17    charge:    2.8683    magn:    0.0000    constr:    0.0000
     atom:   18    charge:    0.8824    magn:   -0.0000    constr:    0.0000
     atom:   19    charge:    2.8671    magn:   -0.0000    constr:    0.0000
     atom:   20    charge:    0.8818    magn:   -0.0000    constr:    0.0000
     atom:   21    charge:    2.8683    magn:    0.0000    constr:    0.0000
     atom:   22    charge:    0.8815    magn:   -0.0000    constr:    0.0000
     atom:   23    charge:    2.8694    magn:    0.0000    constr:    0.0000
     atom:   24    charge:    0.8815    magn:   -0.0000    constr:    0.0000
     atom:   25    charge:    2.8697    magn:    0.0000    constr:    0.0000
     atom:   26    charge:    0.8815    magn:   -0.0000    constr:    0.0000
     atom:   27    charge:    2.8697    magn:   -0.0000    constr:    0.0000
     atom:   28    charge:    0.8815    magn:   -0.0000    constr:    0.0000
     atom:   29    charge:    2.8697    magn:    0.0000    constr:    0.0000
     atom:   30    charge:    0.8818    magn:   -0.0000    constr:    0.0000
     atom:   31    charge:    2.8694    magn:    0.0000    constr:    0.0000
     atom:   32    charge:    0.8811    magn:   -0.0000    constr:    0.0000
     atom:   33    charge:    2.8695    magn:    0.0000    constr:    0.0000
     atom:   34    charge:    0.8813    magn:   -0.0000    constr:    0.0000
     atom:   35    charge:    2.8691    magn:    0.0000    constr:    0.0000
     atom:   36    charge:    0.8811    magn:   -0.0000    constr:    0.0000
     atom:   37    charge:    2.8691    magn:    0.0000    constr:    0.0000
     atom:   38    charge:    0.8815    magn:   -0.0000    constr:    0.0000
     atom:   39    charge:    2.8695    magn:    0.0000    constr:    0.0000
     atom:   40    charge:    0.8815    magn:   -0.0000    constr:    0.0000
     atom:   41    charge:    2.8697    magn:    0.0000    constr:    0.0000
     atom:   42    charge:    0.8816    magn:    0.0000    constr:    0.0000
     atom:   43    charge:    2.8697    magn:   -0.0000    constr:    0.0000
     atom:   44    charge:    0.8815    magn:   -0.0000    constr:    0.0000
     atom:   45    charge:    2.8697    magn:   -0.0000    constr:    0.0000
     atom:   46    charge:    0.8815    magn:   -0.0000    constr:    0.0000
     atom:   47    charge:    2.8697    magn:    0.0000    constr:    0.0000
     atom:   48    charge:    0.8814    magn:   -0.0000    constr:    0.0000
     atom:   49    charge:    2.8697    magn:    0.0000    constr:    0.0000
     atom:   50    charge:    0.8815    magn:   -0.0000    constr:    0.0000
     atom:   51    charge:    2.8696    magn:    0.0000    constr:    0.0000
     atom:   52    charge:    0.8815    magn:   -0.0000    constr:    0.0000
     atom:   53    charge:    2.8694    magn:    0.0000    constr:    0.0000
     atom:   54    charge:    0.8814    magn:   -0.0000    constr:    0.0000
     atom:   55    charge:    2.8696    magn:    0.0000    constr:    0.0000
     atom:   56    charge:    0.8815    magn:   -0.0000    constr:    0.0000
     atom:   57    charge:    2.8697    magn:    0.0000    constr:    0.0000
     atom:   58    charge:    0.8816    magn:    0.0000    constr:    0.0000
     atom:   59    charge:    2.8697    magn:   -0.0000    constr:    0.0000
     atom:   60    charge:    0.8816    magn:    0.0000    constr:    0.0000
     atom:   61    charge:    2.8697    magn:   -0.0000    constr:    0.0000
     atom:   62    charge:    0.8815    magn:   -0.0000    constr:    0.0000
     atom:   63    charge:    2.8697    magn:   -0.0000    constr:    0.0000
     atom:   64    charge:    0.8815    magn:    0.0000    constr:    0.0000
     atom:   65    charge:    2.8697    magn:    0.0000    constr:    0.0000
     atom:   66    charge:    0.8815    magn:    0.0000    constr:    0.0000
     atom:   67    charge:    2.8696    magn:   -0.0000    constr:    0.0000
     atom:   68    charge:    0.8815    magn:    0.0000    constr:    0.0000
     atom:   69    charge:    2.8696    magn:   -0.0000    constr:    0.0000
     atom:   70    charge:    0.8815    magn:    0.0000    constr:    0.0000
     atom:   71    charge:    2.8696    magn:   -0.0000    constr:    0.0000
     atom:   72    charge:    0.8815    magn:    0.0000    constr:    0.0000
     atom:   73    charge:    2.8696    magn:   -0.0000    constr:    0.0000
     atom:   74    charge:    0.8815    magn:   -0.0000    constr:    0.0000
     atom:   75    charge:    2.8697    magn:    0.0000    constr:    0.0000
     atom:   76    charge:    0.8815    magn:   -0.0000    constr:    0.0000
     atom:   77    charge:    2.8697    magn:    0.0000    constr:    0.0000
     atom:   78    charge:    0.8815    magn:   -0.0000    constr:    0.0000
     atom:   79    charge:    2.8697    magn:    0.0000    constr:    0.0000
     atom:   80    charge:    0.8814    magn:   -0.0000    constr:    0.0000
     atom:   81    charge:    2.8695    magn:    0.0000    constr:    0.0000
     atom:   82    charge:    0.8815    magn:    0.0000    constr:    0.0000
     atom:   83    charge:    2.8696    magn:    0.0000    constr:    0.0000
     atom:   84    charge:    0.8815    magn:    0.0000    constr:    0.0000
     atom:   85    charge:    2.8696    magn:   -0.0000    constr:    0.0000
     atom:   86    charge:    0.8815    magn:    0.0000    constr:    0.0000
     atom:   87    charge:    2.8696    magn:   -0.0000    constr:    0.0000
     atom:   88    charge:    0.8815    magn:    0.0000    constr:    0.0000
     atom:   89    charge:    2.8696    magn:   -0.0000    constr:    0.0000
     atom:   90    charge:    0.8814    magn:   -0.0000    constr:    0.0000
     atom:   91    charge:    2.8696    magn:    0.0000    constr:    0.0000
     atom:   92    charge:    0.8815    magn:   -0.0000    constr:    0.0000
     atom:   93    charge:    2.8695    magn:    0.0000    constr:    0.0000
     atom:   94    charge:    0.8815    magn:   -0.0000    constr:    0.0000
     atom:   95    charge:    2.8694    magn:    0.0000    constr:    0.0000
     atom:   96    charge:    0.8811    magn:   -0.0000    constr:    0.0000
     atom:   97    charge:    2.8683    magn:    0.0000    constr:    0.0000
     atom:   98    charge:    0.8815    magn:   -0.0000    constr:    0.0000
     atom:   99    charge:    2.8691    magn:    0.0000    constr:    0.0000
     atom:  100    charge:    0.8815    magn:    0.0000    constr:    0.0000
     atom:  101    charge:    2.8694    magn:    0.0000    constr:    0.0000
     atom:  102    charge:    0.8815    magn:    0.0000    constr:    0.0000
     atom:  103    charge:    2.8696    magn:   -0.0000    constr:    0.0000
     atom:  104    charge:    0.8815    magn:    0.0000    constr:    0.0000
     atom:  105    charge:    2.8696    magn:   -0.0000    constr:    0.0000
     atom:  106    charge:    0.8815    magn:   -0.0000    constr:    0.0000
     atom:  107    charge:    2.8694    magn:    0.0000    constr:    0.0000
     atom:  108    charge:    0.8811    magn:   -0.0000    constr:    0.0000
     atom:  109    charge:    2.8691    magn:    0.0000    constr:    0.0000
     atom:  110    charge:    0.8818    magn:   -0.0000    constr:    0.0000
     atom:  111    charge:    2.8683    magn:    0.0000    constr:    0.0000
     atom:  112    charge:    0.8824    magn:   -0.0000    constr:    0.0000
     atom:  113    charge:    2.8347    magn:   -0.0000    constr:    0.0000
     atom:  114    charge:    0.8813    magn:   -0.0000    constr:    0.0000
     atom:  115    charge:    2.8671    magn:   -0.0000    constr:    0.0000
     atom:  116    charge:    0.8815    magn:   -0.0000    constr:    0.0000
     atom:  117    charge:    2.8691    magn:    0.0000    constr:    0.0000
     atom:  118    charge:    0.8815    magn:    0.0000    constr:    0.0000
     atom:  119    charge:    2.8696    magn:    0.0000    constr:    0.0000
     atom:  120    charge:    0.8815    magn:    0.0000    constr:    0.0000
     atom:  121    charge:    2.8696    magn:   -0.0000    constr:    0.0000
     atom:  122    charge:    0.8815    magn:   -0.0000    constr:    0.0000
     atom:  123    charge:    2.8696    magn:    0.0000    constr:    0.0000
     atom:  124    charge:    0.8813    magn:   -0.0000    constr:    0.0000
     atom:  125    charge:    2.8691    magn:    0.0000    constr:    0.0000
     atom:  126    charge:    0.8824    magn:   -0.0000    constr:    0.0000
     atom:  127    charge:    2.8671    magn:   -0.0000    constr:    0.0000
     atom:  128    charge:    1.6099    magn:    0.0000    constr:    0.0000

     total cpu time spent up to now is      863.5 secs

     End of self-consistent calculation

 ------ SPIN UP ------------


          k = 0.0000 0.0000 0.0000 (325337 PWs)   bands (ev):

   -24.7273 -22.6902 -22.6902 -22.2288 -21.9322 -21.9322 -21.8391 -21.8391
   -21.7940 -21.7577 -21.4872 -21.4872 -21.4003 -21.1944 -21.1944 -21.1752
   -21.0987 -21.0987 -21.0804 -20.9231 -20.9231 -20.7556 -20.5691 -20.5691
   -20.5286 -20.4050 -20.3046 -20.3046 -20.2418 -20.2418 -20.2137 -20.1006
   -20.1006 -20.0076 -19.8899 -19.8735 -19.8735 -19.8230 -19.8230 -19.5583
   -19.5438 -19.5438 -19.4970 -19.3498 -19.3117 -19.3117 -19.2717 -19.1929
   -19.1929 -19.1163 -19.1163 -19.0711 -19.0642 -19.0642 -19.0577 -19.0220
   -19.0132 -19.0132 -18.8531 -18.8531 -18.5815 -18.5815 -18.5767 -18.5763
   -16.2196 -14.5106 -14.5106 -13.5867 -13.5867 -13.4695 -13.3412 -13.2181
   -13.2181 -13.1447 -13.1447 -13.0031 -12.9169 -12.9169 -12.8993 -12.8762
   -12.8762 -12.7708 -12.7683 -12.6439 -12.6439 -12.4767 -12.4767 -12.4708
   -12.3530 -12.3530 -12.2963 -12.2526 -12.2526 -12.2410 -12.2048 -12.2048
   -12.2013 -11.7373 -11.7160 -11.7160 -11.7118 -11.3234 -11.3199 -11.3199
   -11.2623 -11.2481 -11.2481 -11.1983 -11.0961 -11.0961 -11.0575 -11.0376
   -11.0376 -11.0113 -11.0113 -10.9916 -10.6973 -10.6973 -10.6553 -10.5573
   -10.5561 -10.5561 -10.2551 -10.2551 -10.0549  -9.9172  -9.9075  -9.9075
    -9.7944  -9.7944  -9.7929  -9.7929  -9.7584  -9.6789  -9.6445  -9.6356
    -9.6356  -9.5139  -9.5139  -9.4871  -9.3877  -9.3877  -9.3840  -9.3423
    -9.3423  -9.2181  -9.2077  -9.2077  -9.1231  -9.0998  -9.0523  -9.0523
    -8.9501  -8.9494  -8.9420  -8.9420  -8.8762  -8.8762  -8.8664  -8.8664
    -8.8617  -8.7761  -8.7761  -8.7680  -8.7218  -8.7218  -8.7034  -8.7022
    -8.7022  -8.6910  -8.6910  -8.6816  -8.6436  -8.3913  -8.3913  -8.3867
    -8.3588  -8.3588  -8.3575  -8.3069  -8.2940  -8.2940  -8.2676  -8.2545
    -8.2545  -8.0539  -8.0539  -7.8917  -7.7635  -7.7635  -7.7311  -7.7311
    -7.7216  -7.6058  -7.5783  -7.4850  -7.4850  -7.4545  -7.4545  -7.4195
    -7.4195  -7.3976  -7.3861  -7.3597  -7.3597  -7.2904  -7.1959  -7.1524
    -7.1524  -7.1245  -7.1245  -7.0980  -7.0980  -7.0783  -7.0238  -6.7743
    -6.7743  -6.7337  -6.6062  -6.6062  -6.5966  -6.5883  -6.5864  -6.5864
    -6.4399  -6.4399  -6.4018  -6.2990  -6.2990  -6.0858  -5.9293  -5.9289
    -5.9289  -5.9216  -5.9216  -5.7419  -5.7419  -5.7378  -5.6378  -5.5810
    -5.5810  -5.5021  -5.5021  -5.4697  -5.4521  -5.4478  -5.4478  -5.3674
    -5.3656  -5.3656  -5.0092  -5.0092  -4.6869  -4.6820  -4.6759  -4.6759
    -2.7375  -0.4353  -0.2635  -0.2635   0.0077   0.0416   0.1423   0.1423
     0.2626   0.2626   0.4922   0.5242   0.5242   0.5406   0.6062   0.6062
     0.6087   0.6152   0.6152   0.6491   0.6491   0.6830   0.6940   0.6940
     0.7525   0.8821   0.8821   0.9613   1.0660   1.1338   1.1338   1.1477
     1.1481   1.1481   1.1486   1.4596   1.5633   1.5633   1.5696   1.6146
     1.6221   1.6221   1.6428   1.6736   1.6736   1.6765   1.6765   1.7529
     1.7536   1.8265   1.8353

     occupation numbers 
     1.0000   1.0000   1.0000   1.0000   1.0000   1.0000   1.0000   1.0000
     1.0000   1.0000   1.0000   1.0000   1.0000   1.0000   1.0000   1.0000
     1.0000   1.0000   1.0000   1.0000   1.0000   1.0000   1.0000   1.0000
     1.0000   1.0000   1.0000   1.0000   1.0000   1.0000   1.0000   1.0000
     1.0000   1.0000   1.0000   1.0000   1.0000   1.0000   1.0000   1.0000
     1.0000   1.0000   1.0000   1.0000   1.0000   1.0000   1.0000   1.0000
     1.0000   1.0000   1.0000   1.0000   1.0000   1.0000   1.0000   1.0000
     1.0000   1.0000   1.0000   1.0000   1.0000   1.0000   1.0000   1.0000
     1.0000   1.0000   1.0000   1.0000   1.0000   1.0000   1.0000   1.0000
     1.0000   1.0000   1.0000   1.0000   1.0000   1.0000   1.0000   1.0000
     1.0000   1.0000   1.0000   1.0000   1.0000   1.0000   1.0000   1.0000
     1.0000   1.0000   1.0000   1.0000   1.0000   1.0000   1.0000   1.0000
     1.0000   1.0000   1.0000   1.0000   1.0000   1.0000   1.0000   1.0000
     1.0000   1.0000   1.0000   1.0000   1.0000   1.0000   1.0000   1.0000
     1.0000   1.0000   1.0000   1.0000   1.0000   1.0000   1.0000   1.0000
     1.0000   1.0000   1.0000   1.0000   1.0000   1.0000   1.0000   1.0000
     1.0000   1.0000   1.0000   1.0000   1.0000   1.0000   1.0000   1.0000
     1.0000   1.0000   1.0000   1.0000   1.0000   1.0000   1.0000   1.0000
     1.0000   1.0000   1.0000   1.0000   1.0000   1.0000   1.0000   1.0000
     1.0000   1.0000   1.0000   1.0000   1.0000   1.0000   1.0000   1.0000
     1.0000   1.0000   1.0000   1.0000   1.0000   1.0000   1.0000   1.0000
     1.0000   1.0000   1.0000   1.0000   1.0000   1.0000   1.0000   1.0000
     1.0000   1.0000   1.0000   1.0000   1.0000   1.0000   1.0000   1.0000
     1.0000   1.0000   1.0000   1.0000   1.0000   1.0000   1.0000   1.0000
     1.0000   1.0000   1.0000   1.0000   1.0000   1.0000   1.0000   1.0000
     1.0000   1.0000   1.0000   1.0000   1.0000   1.0000   1.0000   1.0000
     1.0000   1.0000   1.0000   1.0000   1.0000   1.0000   1.0000   1.0000
     1.0000   1.0000   1.0000   1.0000   1.0000   1.0000   1.0000   1.0000
     1.0000   1.0000   1.0000   1.0000   1.0000   1.0000   1.0000   1.0000
     1.0000   1.0000   1.0000   1.0000   1.0000   1.0000   1.0000   1.0000
     1.0000   1.0000   1.0000   1.0000   1.0000   1.0000   1.0000   1.0000
     1.0000   1.0000   1.0000   1.0000   1.0000   1.0000   1.0000   1.0000
     0.0000   0.0000   0.0000   0.0000   0.0000   0.0000   0.0000   0.0000
     0.0000   0.0000   0.0000   0.0000   0.0000   0.0000   0.0000   0.0000
     0.0000   0.0000   0.0000   0.0000   0.0000   0.0000   0.0000   0.0000
     0.0000   0.0000   0.0000   0.0000   0.0000   0.0000   0.0000   0.0000
     0.0000   0.0000   0.0000   0.0000   0.0000   0.0000   0.0000   0.0000
     0.0000   0.0000   0.0000   0.0000   0.0000   0.0000   0.0000   0.0000
     0.0000   0.0000   0.0000

          k = 0.0000-0.5774 0.0000 (325470 PWs)   bands (ev):

   -24.7273 -22.6912 -22.6905 -22.1962 -22.0163 -21.9355 -21.9238 -21.8228
   -21.6497 -21.6136 -21.5684 -21.5108 -21.4658 -21.2835 -21.2358 -21.1922
   -21.1798 -21.0355 -20.8785 -20.8454 -20.7880 -20.7257 -20.6878 -20.6524
   -20.6136 -20.5119 -20.3835 -20.3375 -20.2686 -20.1853 -20.1384 -20.1085
   -20.0352 -20.0119 -19.8897 -19.8135 -19.7590 -19.6897 -19.6752 -19.6605
   -19.5981 -19.5506 -19.5212 -19.5148 -19.4514 -19.2980 -19.2920 -19.2484
   -19.2238 -19.2137 -19.1495 -19.1128 -19.0456 -19.0288 -18.9631 -18.9364
   -18.9229 -18.9142 -18.7760 -18.7719 -18.7166 -18.7154 -18.5449 -18.5446
   -16.2198 -14.5106 -14.5099 -13.5863 -13.5663 -13.5274 -13.3211 -13.2381
   -13.2097 -13.1713 -13.1321 -13.0771 -12.9761 -12.9352 -12.8415 -12.8051
   -12.7385 -12.7301 -12.7100 -12.6868 -12.6279 -12.6132 -12.4764 -12.4714
   -12.4342 -12.4310 -12.3109 -12.3101 -12.1979 -12.1724 -12.0141 -11.9570
   -11.8863 -11.8495 -11.8064 -11.7282 -11.6933 -11.6849 -11.6743 -11.6698
   -11.4925 -11.4064 -11.2623 -11.2151 -11.1551 -11.1155 -11.0262 -10.9011
   -10.8952 -10.7914 -10.7848 -10.6292 -10.5679 -10.5278 -10.5124 -10.4959
   -10.4647 -10.2566 -10.2431 -10.2165 -10.1005 -10.0539 -10.0442 -10.0282
    -9.9527  -9.9254  -9.8594  -9.8327  -9.8285  -9.8018  -9.7574  -9.7139
    -9.6317  -9.5860  -9.5129  -9.5125  -9.4104  -9.3762  -9.3547  -9.3332
    -9.3258  -9.2697  -9.2399  -9.2164  -9.2023  -9.1989  -9.1758  -9.1636
    -8.9996  -8.9928  -8.9049  -8.9008  -8.8951  -8.8773  -8.8433  -8.8334
    -8.8307  -8.8114  -8.7683  -8.7665  -8.7234  -8.6555  -8.6182  -8.5579
    -8.5482  -8.5082  -8.5010  -8.4684  -8.4642  -8.4607  -8.4515  -8.4455
    -8.3695  -8.2946  -8.2799  -8.2626  -8.1953  -8.1026  -8.1025  -8.1005
    -8.0582  -8.0271  -7.9913  -7.9715  -7.9570  -7.8950  -7.8877  -7.8543
    -7.8514  -7.8397  -7.8031  -7.7767  -7.6141  -7.6078  -7.5598  -7.5479
    -7.5435  -7.4994  -7.4622  -7.4460  -7.2594  -7.1248  -7.1073  -7.1032
    -7.0856  -7.0069  -6.9996  -6.9703  -6.9557  -6.9497  -6.8618  -6.7909
    -6.7758  -6.7733  -6.7353  -6.6509  -6.6269  -6.4540  -6.3905  -6.3812
    -6.3714  -6.2920  -6.2675  -6.2629  -6.1949  -6.1941  -6.1801  -6.1036
    -6.0903  -6.0112  -5.9994  -5.9981  -5.9622  -5.7127  -5.7092  -5.6926
    -5.5255  -5.5155  -5.5054  -5.4978  -5.3968  -5.3941  -5.2120  -5.2007
    -5.1669  -5.1546  -4.9900  -4.9888  -4.9208  -4.9191  -4.6179  -4.6175
    -2.7361  -0.4211  -0.2601  -0.2598   0.0228   0.0885   0.1105   0.1345
     0.3278   0.3524   0.3994   0.3997   0.4168   0.4637   0.4990   0.5265
     0.5573   0.5806   0.5973   0.6048   0.6815   0.7010   0.7747   0.8051
     1.0051   1.0228   1.0495   1.0570   1.0606   1.0651   1.1010   1.1100
     1.1564   1.1665   1.1666   1.3882   1.4325   1.4411   1.4458   1.4734
     1.5453   1.5543   1.6111   1.6648   1.7060   1.7536   1.8647   1.9139
     1.9172   1.9254   1.9373

     occupation numbers 
     1.0000   1.0000   1.0000   1.0000   1.0000   1.0000   1.0000   1.0000
     1.0000   1.0000   1.0000   1.0000   1.0000   1.0000   1.0000   1.0000
     1.0000   1.0000   1.0000   1.0000   1.0000   1.0000   1.0000   1.0000
     1.0000   1.0000   1.0000   1.0000   1.0000   1.0000   1.0000   1.0000
     1.0000   1.0000   1.0000   1.0000   1.0000   1.0000   1.0000   1.0000
     1.0000   1.0000   1.0000   1.0000   1.0000   1.0000   1.0000   1.0000
     1.0000   1.0000   1.0000   1.0000   1.0000   1.0000   1.0000   1.0000
     1.0000   1.0000   1.0000   1.0000   1.0000   1.0000   1.0000   1.0000
     1.0000   1.0000   1.0000   1.0000   1.0000   1.0000   1.0000   1.0000
     1.0000   1.0000   1.0000   1.0000   1.0000   1.0000   1.0000   1.0000
     1.0000   1.0000   1.0000   1.0000   1.0000   1.0000   1.0000   1.0000
     1.0000   1.0000   1.0000   1.0000   1.0000   1.0000   1.0000   1.0000
     1.0000   1.0000   1.0000   1.0000   1.0000   1.0000   1.0000   1.0000
     1.0000   1.0000   1.0000   1.0000   1.0000   1.0000   1.0000   1.0000
     1.0000   1.0000   1.0000   1.0000   1.0000   1.0000   1.0000   1.0000
     1.0000   1.0000   1.0000   1.0000   1.0000   1.0000   1.0000   1.0000
     1.0000   1.0000   1.0000   1.0000   1.0000   1.0000   1.0000   1.0000
     1.0000   1.0000   1.0000   1.0000   1.0000   1.0000   1.0000   1.0000
     1.0000   1.0000   1.0000   1.0000   1.0000   1.0000   1.0000   1.0000
     1.0000   1.0000   1.0000   1.0000   1.0000   1.0000   1.0000   1.0000
     1.0000   1.0000   1.0000   1.0000   1.0000   1.0000   1.0000   1.0000
     1.0000   1.0000   1.0000   1.0000   1.0000   1.0000   1.0000   1.0000
     1.0000   1.0000   1.0000   1.0000   1.0000   1.0000   1.0000   1.0000
     1.0000   1.0000   1.0000   1.0000   1.0000   1.0000   1.0000   1.0000
     1.0000   1.0000   1.0000   1.0000   1.0000   1.0000   1.0000   1.0000
     1.0000   1.0000   1.0000   1.0000   1.0000   1.0000   1.0000   1.0000
     1.0000   1.0000   1.0000   1.0000   1.0000   1.0000   1.0000   1.0000
     1.0000   1.0000   1.0000   1.0000   1.0000   1.0000   1.0000   1.0000
     1.0000   1.0000   1.0000   1.0000   1.0000   1.0000   1.0000   1.0000
     1.0000   1.0000   1.0000   1.0000   1.0000   1.0000   1.0000   1.0000
     1.0000   1.0000   1.0000   1.0000   1.0000   1.0000   1.0000   1.0000
     1.0000   1.0000   1.0000   1.0000   1.0000   1.0000   1.0000   1.0000
     0.0000   0.0000   0.0000   0.0000   0.0000   0.0000   0.0000   0.0000
     0.0000   0.0000   0.0000   0.0000   0.0000   0.0000   0.0000   0.0000
     0.0000   0.0000   0.0000   0.0000   0.0000   0.0000   0.0000   0.0000
     0.0000   0.0000   0.0000   0.0000   0.0000   0.0000   0.0000   0.0000
     0.0000   0.0000   0.0000   0.0000   0.0000   0.0000   0.0000   0.0000
     0.0000   0.0000   0.0000   0.0000   0.0000   0.0000   0.0000   0.0000
     0.0000   0.0000   0.0000

 ------ SPIN DOWN ----------


          k = 0.0000 0.0000 0.0000 (325337 PWs)   bands (ev):

   -24.7273 -22.6903 -22.6903 -22.2288 -21.9322 -21.9322 -21.8391 -21.8391
   -21.7940 -21.7577 -21.4872 -21.4872 -21.4003 -21.1944 -21.1944 -21.1752
   -21.0987 -21.0987 -21.0804 -20.9231 -20.9231 -20.7556 -20.5691 -20.5691
   -20.5286 -20.4050 -20.3046 -20.3046 -20.2418 -20.2418 -20.2137 -20.1006
   -20.1006 -20.0076 -19.8899 -19.8735 -19.8735 -19.8230 -19.8230 -19.5583
   -19.5438 -19.5438 -19.4970 -19.3497 -19.3117 -19.3117 -19.2717 -19.1929
   -19.1929 -19.1163 -19.1163 -19.0711 -19.0642 -19.0642 -19.0577 -19.0220
   -19.0132 -19.0132 -18.8531 -18.8531 -18.5815 -18.5815 -18.5767 -18.5763
   -16.2195 -14.5106 -14.5106 -13.5867 -13.5867 -13.4695 -13.3412 -13.2182
   -13.2182 -13.1447 -13.1447 -13.0031 -12.9169 -12.9169 -12.8993 -12.8762
   -12.8762 -12.7708 -12.7683 -12.6439 -12.6439 -12.4767 -12.4767 -12.4708
   -12.3530 -12.3530 -12.2964 -12.2526 -12.2526 -12.2410 -12.2048 -12.2048
   -12.2013 -11.7373 -11.7160 -11.7160 -11.7118 -11.3234 -11.3199 -11.3199
   -11.2622 -11.2481 -11.2481 -11.1983 -11.0961 -11.0961 -11.0575 -11.0376
   -11.0376 -11.0113 -11.0113 -10.9916 -10.6973 -10.6973 -10.6553 -10.5573
   -10.5561 -10.5561 -10.2551 -10.2551 -10.0550  -9.9172  -9.9075  -9.9075
    -9.7945  -9.7945  -9.7929  -9.7929  -9.7584  -9.6789  -9.6445  -9.6356
    -9.6356  -9.5139  -9.5139  -9.4871  -9.3877  -9.3877  -9.3840  -9.3423
    -9.3423  -9.2181  -9.2077  -9.2077  -9.1231  -9.0998  -9.0523  -9.0523
    -8.9501  -8.9494  -8.9420  -8.9420  -8.8762  -8.8762  -8.8664  -8.8664
    -8.8617  -8.7761  -8.7761  -8.7680  -8.7218  -8.7218  -8.7034  -8.7022
    -8.7022  -8.6910  -8.6910  -8.6816  -8.6436  -8.3913  -8.3913  -8.3867
    -8.3588  -8.3588  -8.3575  -8.3069  -8.2940  -8.2940  -8.2676  -8.2546
    -8.2546  -8.0539  -8.0539  -7.8917  -7.7635  -7.7635  -7.7311  -7.7311
    -7.7216  -7.6058  -7.5783  -7.4850  -7.4850  -7.4545  -7.4545  -7.4195
    -7.4195  -7.3976  -7.3861  -7.3597  -7.3597  -7.2904  -7.1959  -7.1524
    -7.1524  -7.1245  -7.1245  -7.0980  -7.0980  -7.0783  -7.0238  -6.7743
    -6.7743  -6.7336  -6.6062  -6.6062  -6.5966  -6.5883  -6.5864  -6.5864
    -6.4399  -6.4399  -6.4018  -6.2990  -6.2990  -6.0858  -5.9293  -5.9289
    -5.9289  -5.9216  -5.9216  -5.7419  -5.7419  -5.7378  -5.6378  -5.5810
    -5.5810  -5.5020  -5.5020  -5.4697  -5.4521  -5.4478  -5.4478  -5.3674
    -5.3656  -5.3656  -5.0092  -5.0092  -4.6869  -4.6820  -4.6759  -4.6759
    -2.7372  -0.4354  -0.2636  -0.2636   0.0077   0.0415   0.1423   0.1423
     0.2626   0.2626   0.4922   0.5242   0.5242   0.5406   0.6061   0.6061
     0.6087   0.6152   0.6152   0.6490   0.6490   0.6830   0.6940   0.6940
     0.7525   0.8821   0.8821   0.9613   1.0660   1.1338   1.1338   1.1476
     1.1480   1.1480   1.1485   1.4596   1.5632   1.5632   1.5696   1.6146
     1.6221   1.6221   1.6428   1.6736   1.6736   1.6765   1.6765   1.7528
     1.7529   1.8263   1.8353

     occupation numbers 
     1.0000   1.0000   1.0000   1.0000   1.0000   1.0000   1.0000   1.0000
     1.0000   1.0000   1.0000   1.0000   1.0000   1.0000   1.0000   1.0000
     1.0000   1.0000   1.0000   1.0000   1.0000   1.0000   1.0000   1.0000
     1.0000   1.0000   1.0000   1.0000   1.0000   1.0000   1.0000   1.0000
     1.0000   1.0000   1.0000   1.0000   1.0000   1.0000   1.0000   1.0000
     1.0000   1.0000   1.0000   1.0000   1.0000   1.0000   1.0000   1.0000
     1.0000   1.0000   1.0000   1.0000   1.0000   1.0000   1.0000   1.0000
     1.0000   1.0000   1.0000   1.0000   1.0000   1.0000   1.0000   1.0000
     1.0000   1.0000   1.0000   1.0000   1.0000   1.0000   1.0000   1.0000
     1.0000   1.0000   1.0000   1.0000   1.0000   1.0000   1.0000   1.0000
     1.0000   1.0000   1.0000   1.0000   1.0000   1.0000   1.0000   1.0000
     1.0000   1.0000   1.0000   1.0000   1.0000   1.0000   1.0000   1.0000
     1.0000   1.0000   1.0000   1.0000   1.0000   1.0000   1.0000   1.0000
     1.0000   1.0000   1.0000   1.0000   1.0000   1.0000   1.0000   1.0000
     1.0000   1.0000   1.0000   1.0000   1.0000   1.0000   1.0000   1.0000
     1.0000   1.0000   1.0000   1.0000   1.0000   1.0000   1.0000   1.0000
     1.0000   1.0000   1.0000   1.0000   1.0000   1.0000   1.0000   1.0000
     1.0000   1.0000   1.0000   1.0000   1.0000   1.0000   1.0000   1.0000
     1.0000   1.0000   1.0000   1.0000   1.0000   1.0000   1.0000   1.0000
     1.0000   1.0000   1.0000   1.0000   1.0000   1.0000   1.0000   1.0000
     1.0000   1.0000   1.0000   1.0000   1.0000   1.0000   1.0000   1.0000
     1.0000   1.0000   1.0000   1.0000   1.0000   1.0000   1.0000   1.0000
     1.0000   1.0000   1.0000   1.0000   1.0000   1.0000   1.0000   1.0000
     1.0000   1.0000   1.0000   1.0000   1.0000   1.0000   1.0000   1.0000
     1.0000   1.0000   1.0000   1.0000   1.0000   1.0000   1.0000   1.0000
     1.0000   1.0000   1.0000   1.0000   1.0000   1.0000   1.0000   1.0000
     1.0000   1.0000   1.0000   1.0000   1.0000   1.0000   1.0000   1.0000
     1.0000   1.0000   1.0000   1.0000   1.0000   1.0000   1.0000   1.0000
     1.0000   1.0000   1.0000   1.0000   1.0000   1.0000   1.0000   1.0000
     1.0000   1.0000   1.0000   1.0000   1.0000   1.0000   1.0000   1.0000
     1.0000   1.0000   1.0000   1.0000   1.0000   1.0000   1.0000   1.0000
     1.0000   1.0000   1.0000   1.0000   1.0000   1.0000   1.0000   1.0000
     0.0000   0.0000   0.0000   0.0000   0.0000   0.0000   0.0000   0.0000
     0.0000   0.0000   0.0000   0.0000   0.0000   0.0000   0.0000   0.0000
     0.0000   0.0000   0.0000   0.0000   0.0000   0.0000   0.0000   0.0000
     0.0000   0.0000   0.0000   0.0000   0.0000   0.0000   0.0000   0.0000
     0.0000   0.0000   0.0000   0.0000   0.0000   0.0000   0.0000   0.0000
     0.0000   0.0000   0.0000   0.0000   0.0000   0.0000   0.0000   0.0000
     0.0000   0.0000   0.0000

          k = 0.0000-0.5774 0.0000 (325470 PWs)   bands (ev):

   -24.7273 -22.6912 -22.6905 -22.1962 -22.0163 -21.9355 -21.9238 -21.8228
   -21.6497 -21.6136 -21.5684 -21.5108 -21.4658 -21.2835 -21.2358 -21.1922
   -21.1798 -21.0355 -20.8785 -20.8454 -20.7880 -20.7257 -20.6878 -20.6524
   -20.6136 -20.5119 -20.3835 -20.3375 -20.2686 -20.1853 -20.1384 -20.1085
   -20.0352 -20.0119 -19.8897 -19.8135 -19.7590 -19.6897 -19.6752 -19.6605
   -19.5981 -19.5506 -19.5212 -19.5148 -19.4514 -19.2980 -19.2920 -19.2484
   -19.2238 -19.2137 -19.1495 -19.1128 -19.0456 -19.0288 -18.9631 -18.9364
   -18.9229 -18.9142 -18.7760 -18.7719 -18.7166 -18.7154 -18.5449 -18.5446
   -16.2197 -14.5106 -14.5100 -13.5863 -13.5663 -13.5274 -13.3211 -13.2381
   -13.2097 -13.1713 -13.1321 -13.0771 -12.9761 -12.9352 -12.8415 -12.8051
   -12.7385 -12.7302 -12.7100 -12.6868 -12.6279 -12.6132 -12.4765 -12.4714
   -12.4342 -12.4310 -12.3109 -12.3101 -12.1979 -12.1724 -12.0141 -11.9570
   -11.8863 -11.8495 -11.8064 -11.7282 -11.6933 -11.6849 -11.6743 -11.6698
   -11.4925 -11.4064 -11.2622 -11.2151 -11.1551 -11.1155 -11.0262 -10.9011
   -10.8952 -10.7914 -10.7848 -10.6292 -10.5679 -10.5278 -10.5124 -10.4959
   -10.4647 -10.2566 -10.2431 -10.2165 -10.1005 -10.0539 -10.0442 -10.0282
    -9.9527  -9.9254  -9.8594  -9.8327  -9.8285  -9.8018  -9.7574  -9.7139
    -9.6317  -9.5860  -9.5129  -9.5125  -9.4104  -9.3762  -9.3547  -9.3332
    -9.3258  -9.2697  -9.2400  -9.2164  -9.2023  -9.1989  -9.1758  -9.1636
    -8.9996  -8.9928  -8.9049  -8.9008  -8.8951  -8.8773  -8.8433  -8.8334
    -8.8307  -8.8114  -8.7683  -8.7665  -8.7234  -8.6555  -8.6182  -8.5579
    -8.5482  -8.5082  -8.5011  -8.4684  -8.4642  -8.4607  -8.4515  -8.4455
    -8.3695  -8.2946  -8.2799  -8.2626  -8.1953  -8.1026  -8.1025  -8.1005
    -8.0582  -8.0271  -7.9913  -7.9715  -7.9570  -7.8950  -7.8877  -7.8543
    -7.8514  -7.8397  -7.8031  -7.7767  -7.6141  -7.6078  -7.5599  -7.5479
    -7.5435  -7.4994  -7.4622  -7.4460  -7.2594  -7.1248  -7.1073  -7.1032
    -7.0856  -7.0069  -6.9996  -6.9703  -6.9557  -6.9497  -6.8618  -6.7909
    -6.7758  -6.7733  -6.7352  -6.6508  -6.6269  -6.4539  -6.3905  -6.3812
    -6.3714  -6.2920  -6.2675  -6.2629  -6.1949  -6.1941  -6.1801  -6.1036
    -6.0903  -6.0112  -5.9994  -5.9981  -5.9622  -5.7127  -5.7092  -5.6926
    -5.5255  -5.5155  -5.5054  -5.4978  -5.3968  -5.3940  -5.2120  -5.2006
    -5.1669  -5.1546  -4.9900  -4.9888  -4.9208  -4.9191  -4.6179  -4.6175
    -2.7358  -0.4211  -0.2602  -0.2599   0.0228   0.0884   0.1105   0.1345
     0.3277   0.3524   0.3993   0.3997   0.4168   0.4636   0.4990   0.5265
     0.5573   0.5806   0.5973   0.6048   0.6814   0.7010   0.7747   0.8051
     1.0051   1.0228   1.0495   1.0570   1.0606   1.0651   1.1010   1.1100
     1.1563   1.1665   1.1666   1.3882   1.4325   1.4411   1.4459   1.4734
     1.5453   1.5542   1.6111   1.6648   1.7060   1.7537   1.8655   1.9133
     1.9171   1.9243   1.9370

     occupation numbers 
     1.0000   1.0000   1.0000   1.0000   1.0000   1.0000   1.0000   1.0000
     1.0000   1.0000   1.0000   1.0000   1.0000   1.0000   1.0000   1.0000
     1.0000   1.0000   1.0000   1.0000   1.0000   1.0000   1.0000   1.0000
     1.0000   1.0000   1.0000   1.0000   1.0000   1.0000   1.0000   1.0000
     1.0000   1.0000   1.0000   1.0000   1.0000   1.0000   1.0000   1.0000
     1.0000   1.0000   1.0000   1.0000   1.0000   1.0000   1.0000   1.0000
     1.0000   1.0000   1.0000   1.0000   1.0000   1.0000   1.0000   1.0000
     1.0000   1.0000   1.0000   1.0000   1.0000   1.0000   1.0000   1.0000
     1.0000   1.0000   1.0000   1.0000   1.0000   1.0000   1.0000   1.0000
     1.0000   1.0000   1.0000   1.0000   1.0000   1.0000   1.0000   1.0000
     1.0000   1.0000   1.0000   1.0000   1.0000   1.0000   1.0000   1.0000
     1.0000   1.0000   1.0000   1.0000   1.0000   1.0000   1.0000   1.0000
     1.0000   1.0000   1.0000   1.0000   1.0000   1.0000   1.0000   1.0000
     1.0000   1.0000   1.0000   1.0000   1.0000   1.0000   1.0000   1.0000
     1.0000   1.0000   1.0000   1.0000   1.0000   1.0000   1.0000   1.0000
     1.0000   1.0000   1.0000   1.0000   1.0000   1.0000   1.0000   1.0000
     1.0000   1.0000   1.0000   1.0000   1.0000   1.0000   1.0000   1.0000
     1.0000   1.0000   1.0000   1.0000   1.0000   1.0000   1.0000   1.0000
     1.0000   1.0000   1.0000   1.0000   1.0000   1.0000   1.0000   1.0000
     1.0000   1.0000   1.0000   1.0000   1.0000   1.0000   1.0000   1.0000
     1.0000   1.0000   1.0000   1.0000   1.0000   1.0000   1.0000   1.0000
     1.0000   1.0000   1.0000   1.0000   1.0000   1.0000   1.0000   1.0000
     1.0000   1.0000   1.0000   1.0000   1.0000   1.0000   1.0000   1.0000
     1.0000   1.0000   1.0000   1.0000   1.0000   1.0000   1.0000   1.0000
     1.0000   1.0000   1.0000   1.0000   1.0000   1.0000   1.0000   1.0000
     1.0000   1.0000   1.0000   1.0000   1.0000   1.0000   1.0000   1.0000
     1.0000   1.0000   1.0000   1.0000   1.0000   1.0000   1.0000   1.0000
     1.0000   1.0000   1.0000   1.0000   1.0000   1.0000   1.0000   1.0000
     1.0000   1.0000   1.0000   1.0000   1.0000   1.0000   1.0000   1.0000
     1.0000   1.0000   1.0000   1.0000   1.0000   1.0000   1.0000   1.0000
     1.0000   1.0000   1.0000   1.0000   1.0000   1.0000   1.0000   1.0000
     1.0000   1.0000   1.0000   1.0000   1.0000   1.0000   1.0000   1.0000
     0.0000   0.0000   0.0000   0.0000   0.0000   0.0000   0.0000   0.0000
     0.0000   0.0000   0.0000   0.0000   0.0000   0.0000   0.0000   0.0000
     0.0000   0.0000   0.0000   0.0000   0.0000   0.0000   0.0000   0.0000
     0.0000   0.0000   0.0000   0.0000   0.0000   0.0000   0.0000   0.0000
     0.0000   0.0000   0.0000   0.0000   0.0000   0.0000   0.0000   0.0000
     0.0000   0.0000   0.0000   0.0000   0.0000   0.0000   0.0000   0.0000
     0.0000   0.0000   0.0000

     the Fermi energy is    -3.8190 ev

!    total energy              =   -2044.21438311 Ry
     Harris-Foulkes estimate   =   -2044.21438310 Ry
     estimated scf accuracy    <          8.4E-10 Ry

     The total energy is the sum of the following terms:

     one-electron contribution =  -14159.64025964 Ry
     hartree contribution      =    7171.69466564 Ry
     xc contribution           =    -538.66150323 Ry
     ewald contribution        =    5821.99962949 Ry
     one-center paw contrib.   =    -339.60691537 Ry
      -> PAW hartree energy AE =       3.32468330 Ry
      -> PAW hartree energy PS =      -3.31663531 Ry
      -> PAW xc energy AE      =      -7.70617248 Ry
      -> PAW xc energy PS      =       2.40548596 Ry
      -> total E_H with PAW    =    7171.70271363 Ry
      -> total E_XC with PAW   =    -543.96218975 Ry
     smearing contrib. (-TS)   =       0.00000000 Ry

     total magnetization       =     0.00 Bohr mag/cell
     absolute magnetization    =     0.00 Bohr mag/cell

     convergence has been achieved in  17 iterations

     negative rho (up, down):  2.421E-03 2.421E-03

     Forces acting on atoms (cartesian axes, Ry/au):

     atom    1 type  3   force =    -0.13817579    0.07977583   -0.00001957
     atom    2 type  1   force =    -0.05834146    0.03160169    0.00001991
     atom    3 type  3   force =     0.00000000   -0.15955166   -0.00001957
     atom    4 type  1   force =    -0.01712854    0.01537925    0.00002013
     atom    5 type  3   force =     0.01772648   -0.03525266   -0.00001973
     atom    6 type  1   force =    -0.00647049    0.00600779    0.00002030
     atom    7 type  3   force =     0.00623392   -0.01347148   -0.00001975
     atom    8 type  1   force =    -0.00159703   -0.00092204    0.00002042
     atom    9 type  3   force =     0.00155529   -0.00382650   -0.00001974
     atom   10 type  1   force =     0.00196765   -0.00860750    0.00002030
     atom   11 type  3   force =    -0.00253621    0.00326017   -0.00001974
     atom   12 type  1   force =     0.00475455   -0.02252337    0.00002013
     atom   13 type  3   force =    -0.00854968    0.01213447   -0.00001975
     atom   14 type  1   force =    -0.00180286   -0.06632603    0.00001991
     atom   15 type  3   force =    -0.02166646    0.03297792   -0.00001973
     atom   16 type  1   force =     0.05653860    0.03472434    0.00001991
     atom   17 type  3   force =    -0.03939294    0.00227474   -0.00001973
     atom   18 type  1   force =     0.05834146    0.03160169    0.00001991
     atom   19 type  3   force =    -0.03688603   -0.02129616   -0.00001972
     atom   20 type  1   force =    -0.00000000    0.02528843    0.00002021
     atom   21 type  3   force =    -0.01772648   -0.03525266   -0.00001973
     atom   22 type  1   force =    -0.00379915    0.01040684    0.00002021
     atom   23 type  3   force =     0.00000000   -0.01844950   -0.00001975
     atom   24 type  1   force =    -0.00164332    0.00278717    0.00002031
     atom   25 type  3   force =     0.00085870   -0.00750684   -0.00001975
     atom   26 type  1   force =     0.00159210   -0.00281674    0.00002031
     atom   27 type  3   force =    -0.00128895   -0.00074417   -0.00001975
[...]
     atom   30 type  1   force =    -0.00000018    0.00000010    0.00000000
     atom   31 type  3   force =    -0.00000058    0.00000033   -0.00000000
     atom   32 type  1   force =    -0.00000025    0.00000009    0.00000000
     atom   33 type  3   force =    -0.00000075    0.00000052    0.00000000
     atom   34 type  1   force =    -0.00000005   -0.00000003    0.00000000
     atom   35 type  3   force =    -0.00000056   -0.00000024    0.00000000
     atom   36 type  1   force =    -0.00000005   -0.00000027    0.00000000
     atom   37 type  3   force =    -0.00000049   -0.00000036    0.00000000
     atom   38 type  1   force =    -0.00000001   -0.00000042    0.00000000
     atom   39 type  3   force =     0.00000007   -0.00000091    0.00000000
     atom   40 type  1   force =     0.00000000    0.00000011   -0.00000000
     atom   41 type  3   force =    -0.00000005   -0.00000016    0.00000000
     atom   42 type  1   force =     0.00000020    0.00000012    0.00000000
     atom   43 type  3   force =     0.00000000    0.00000050   -0.00000000
     atom   44 type  1   force =     0.00000009   -0.00000005   -0.00000000
     atom   45 type  3   force =     0.00000044   -0.00000025   -0.00000000
     atom   46 type  1   force =    -0.00000037    0.00000020    0.00000000
     atom   47 type  3   force =    -0.00000016    0.00000003    0.00000000
     atom   48 type  1   force =    -0.00000031    0.00000025    0.00000000
     atom   49 type  3   force =    -0.00000062    0.00000038    0.00000000
     atom   50 type  1   force =    -0.00000011   -0.00000000    0.00000000
     atom   51 type  3   force =    -0.00000073    0.00000043    0.00000000
     atom   52 type  1   force =    -0.00000006   -0.00000009    0.00000000
     atom   53 type  3   force =    -0.00000043   -0.00000025    0.00000000
     atom   54 type  1   force =     0.00000006   -0.00000040    0.00000000
     atom   55 type  3   force =     0.00000001   -0.00000085    0.00000000
     atom   56 type  1   force =    -0.00000011   -0.00000008    0.00000000
     atom   57 type  3   force =     0.00000002   -0.00000073    0.00000000
     atom   58 type  1   force =    -0.00000020    0.00000012    0.00000000
     atom   59 type  3   force =    -0.00000057    0.00000033    0.00000000
     atom   60 type  1   force =    -0.00000000   -0.00000024    0.00000000
     atom   61 type  3   force =    -0.00000044   -0.00000025   -0.00000000
     atom   62 type  1   force =    -0.00000012   -0.00000005    0.00000000
     atom   63 type  3   force =    -0.00000000   -0.00000066    0.00000000
     atom   64 type  1   force =     0.00000000    0.00000031    0.00000000
     atom   65 type  3   force =     0.00000062    0.00000038    0.00000000
     atom   66 type  1   force =    -0.00000010    0.00000014   -0.00000000
     atom   67 type  3   force =    -0.00000000    0.00000087    0.00000000
     atom   68 type  1   force =    -0.00000000   -0.00000000    0.00000000
     atom   69 type  3   force =    -0.00000023    0.00000028    0.00000000
     atom   70 type  1   force =     0.00000007   -0.00000016   -0.00000000
     atom   71 type  3   force =     0.00000013   -0.00000034    0.00000000
     atom   72 type  1   force =     0.00000027   -0.00000015    0.00000000
     atom   73 type  3   force =     0.00000075   -0.00000043    0.00000000
     atom   74 type  1   force =     0.00000001    0.00000013    0.00000000
     atom   75 type  3   force =     0.00000064    0.00000034    0.00000000
     atom   76 type  1   force =    -0.00000009   -0.00000005   -0.00000000
     atom   77 type  3   force =     0.00000011    0.00000012    0.00000000
     atom   78 type  1   force =     0.00000012   -0.00000005    0.00000000
     atom   79 type  3   force =     0.00000016    0.00000003    0.00000000
     atom   80 type  1   force =     0.00000031    0.00000025    0.00000000
     atom   81 type  3   force =     0.00000075    0.00000052    0.00000000
     atom   82 type  1   force =     0.00000010    0.00000014   -0.00000000
     atom   83 type  3   force =     0.00000073    0.00000043    0.00000000
     atom   84 type  1   force =     0.00000000    0.00000006   -0.00000000
     atom   85 type  3   force =     0.00000023    0.00000028    0.00000000
     atom   86 type  1   force =     0.00000005   -0.00000003   -0.00000000
     atom   87 type  3   force =    -0.00000000    0.00000000    0.00000001
     atom   88 type  1   force =     0.00000017    0.00000002   -0.00000000
     atom   89 type  3   force =     0.00000036    0.00000006    0.00000000
     atom   90 type  1   force =     0.00000038    0.00000015    0.00000000
     atom   91 type  3   force =     0.00000074    0.00000042    0.00000000
     atom   92 type  1   force =     0.00000035    0.00000022    0.00000000
     atom   93 type  3   force =     0.00000083    0.00000039    0.00000000
     atom   94 type  1   force =     0.00000037    0.00000020    0.00000000
     atom   95 type  3   force =     0.00000058    0.00000033   -0.00000000
     atom   96 type  1   force =     0.00000025    0.00000009    0.00000000
     atom   97 type  3   force =    -0.00000003    0.00000021    0.00000000
     atom   98 type  1   force =     0.00000011   -0.00000000    0.00000000
     atom   99 type  3   force =     0.00000056   -0.00000024    0.00000000
     atom  100 type  1   force =     0.00000000   -0.00000000    0.00000000
     atom  101 type  3   force =     0.00000043   -0.00000025    0.00000000
     atom  102 type  1   force =    -0.00000005   -0.00000003   -0.00000000
     atom  103 type  3   force =    -0.00000013   -0.00000034    0.00000000
     atom  104 type  1   force =     0.00000000    0.00000000    0.00000000
     atom  105 type  3   force =    -0.00000036    0.00000006    0.00000000
     atom  106 type  1   force =     0.00000005    0.00000010    0.00000000
     atom  107 type  3   force =     0.00000000    0.00000050    0.00000000
     atom  108 type  1   force =     0.00000021    0.00000017    0.00000000
     atom  109 type  3   force =     0.00000007    0.00000060    0.00000000
     atom  110 type  1   force =     0.00000018    0.00000010    0.00000000
     atom  111 type  3   force =     0.00000017   -0.00000013    0.00000000
     atom  112 type  1   force =    -0.00000044    0.00000004    0.00000000
     atom  113 type  3   force =    -0.00000099   -0.00000057    0.00000000
     atom  114 type  1   force =     0.00000005   -0.00000003    0.00000000
     atom  115 type  3   force =    -0.00000051    0.00000029   -0.00000000
     atom  116 type  1   force =     0.00000006   -0.00000009    0.00000000
     atom  117 type  3   force =     0.00000049   -0.00000036    0.00000000
     atom  118 type  1   force =    -0.00000007   -0.00000016   -0.00000000
     atom  119 type  3   force =    -0.00000001   -0.00000085    0.00000000
     atom  120 type  1   force =    -0.00000017    0.00000002   -0.00000000
     atom  121 type  3   force =    -0.00000075   -0.00000043    0.00000000
     atom  122 type  1   force =    -0.00000005    0.00000010    0.00000000
     atom  123 type  3   force =    -0.00000074    0.00000042    0.00000000
     atom  124 type  1   force =     0.00000000    0.00000006    0.00000000
     atom  125 type  3   force =    -0.00000007    0.00000060    0.00000000
     atom  126 type  1   force =    -0.00000019   -0.00000041    0.00000000
     atom  127 type  3   force =    -0.00000000   -0.00000058   -0.00000000
     atom  128 type  2   force =     0.00000000    0.00000000    0.00000000

     Total force =     0.006009     Total SCF correction =     0.000006


     Computing stress (Cartesian axis) and pressure


     negative rho (up, down):  2.431E-03 2.431E-03
          total   stress  (Ry/bohr**3)                   (kbar)     P=   -1.96
  -0.00001656   0.00000000   0.00000000         -2.44      0.00      0.00
   0.00000000  -0.00001656   0.00000000          0.00     -2.44      0.00
   0.00000000   0.00000000  -0.00000680          0.00      0.00     -1.00

     kinetic stress (kbar)   2007.69     -0.00      0.00
                               -0.00   2007.69      0.00
                                0.00      0.00   2249.60

     local   stress (kbar) -46215.14     -0.00      0.00
                               -0.00 -46215.14     -0.00
                                0.00     -0.00  45189.73

     nonloc. stress (kbar)    688.91     -0.00      0.00
                               -0.00    688.91      0.00
                                0.00      0.00    642.06

     hartree stress (kbar)  21897.61      0.00     -0.00
                                0.00  21897.61      0.00
                               -0.00      0.00 -21477.02

     exc-cor stress (kbar)   -276.97      0.00     -0.00
                                0.00   -276.97     -0.00
                               -0.00     -0.00   -296.39

     corecor stress (kbar)   -214.41     -0.00     -0.00
                               -0.00   -214.41      0.00
                               -0.00      0.00   -207.59

     ewald   stress (kbar)  22109.88      0.00      0.00
                                0.00  22109.88      0.00
                                0.00      0.00 -26101.39

     hubbard stress (kbar)      0.00      0.00      0.00
                                0.00      0.00      0.00
                                0.00      0.00      0.00

     london  stress (kbar)      0.00      0.00      0.00
                                0.00      0.00      0.00
                                0.00      0.00      0.00

     XDM     stress (kbar)      0.00      0.00      0.00
                                0.00      0.00      0.00
                                0.00      0.00      0.00

     dft-nl  stress (kbar)      0.00      0.00      0.00
                                0.00      0.00      0.00
                                0.00      0.00      0.00

     TS-vdW  stress (kbar)      0.00      0.00      0.00
                                0.00      0.00      0.00
                                0.00      0.00      0.00



     bfgs converged in   8 scf cycles and   7 bfgs steps
     (criteria: energy <  1.0E-04 Ry, force <  1.0E-03 Ry/Bohr)

     End of BFGS Geometry Optimization

     Final energy   =   -2044.2618134486 Ry
Begin final coordinates

ATOMIC_POSITIONS (angstrom)
N        1.190286937   0.761532650   9.999951786
B       -1.269690569   3.608955616  10.000012891
N        0.000000000   2.823170101   9.999951786
B       -2.508985935   5.788746527  10.000019836
N       -1.246183949   5.043704442   9.999984652
B       -3.764028942   7.966050983  10.000019269
N       -2.505767282   7.233088895   9.999983482
B       -5.019649221  10.140610373  10.000019565
N       -3.763667759   9.413695599   9.999983747
B       -6.275062755  12.315289127  10.000019269
N       -5.021185151  11.591779613   9.999983747
B       -7.533142222  14.490840482  10.000019836
N       -6.280695714  13.771456733   9.999983482
B       -8.801248844  16.653997208  10.000012891
N       -7.546966602  15.956980125   9.999984652
B        2.505642439   1.468224180  10.000012891
N        3.736418061   0.730492437   9.999984652
B        1.269690569   3.608955616  10.000012891
N        2.508798111   2.897200398   9.999983541
B        0.000000000   5.788856375  10.000018883
N        1.246183949   5.043704442   9.999984652
B       -1.254786136   7.965764570  10.000018832
N        0.000000000   7.230728297   9.999983163
B       -2.510069017  10.140609711  10.000019067
N       -1.254486365   9.412023966   9.999983424
B       -3.764859693  12.313970914  10.000019067
N       -2.510402486  11.589324651   9.999983477
B       -5.020689393  14.488500348  10.000018832
N       -3.768042130  13.765630260   9.999983424
B       -6.278554124  16.663631116  10.000018883
N       -5.029856410  15.942695155   9.999983163
B        5.013044427   1.451589994  10.000019836
N        6.262272283   0.726631376   9.999983482
B        3.778352709   3.630178087  10.000020910
N        5.016208493   2.897224909   9.999983889
B        2.508985936   5.788746527  10.000019836
N        3.762524529   5.068669231   9.999983889
B        1.254786136   7.965764570  10.000018832
N        2.505767283   7.233088895   9.999983482
B        0.000000000  10.140781772  10.000018612
N        1.254486365   9.412023966   9.999983424
B       -1.254920373  12.314177587  10.000018651
N        0.000000000  11.588729656   9.999983354
B       -2.509676174  14.487668417  10.000018612
N       -1.255716524  13.763694475   9.999983354
B       -3.765903257  16.661853688  10.000018832
N       -2.513555765  15.938464381   9.999983424
B        7.526166901   1.449836893  10.000019269
N        8.779683323   0.725701792   9.999983747
B        6.278911236   3.624133397  10.000019837
N        7.527021358   2.897638012   9.999983970
B        5.023397118   5.798747641  10.000019837
N        6.272614563   5.070240840   9.999984118
B        3.764028942   7.966050983  10.000019269
N        5.018288720   7.242890405   9.999983970
B        2.510069017  10.140609711  10.000019067
N        3.763667760   9.413695599   9.999983747
B        1.254920374  12.314177587  10.000018651
N        2.510402486  11.589324651   9.999983477
B        0.000000000  14.487763433  10.000018651
N        1.255716524  13.763694475   9.999983354
B       -1.254790676  16.661537982  10.000019067
N        0.000000000  15.937469304   9.999983477
B       10.037200714   1.449956258  10.000019565
N       11.294718106   0.725701792   9.999983747
B        8.784351232   3.623341748  10.000019923
N       10.037200715   2.898025279   9.999984045
B        7.530436222   5.796444513  10.000020007
N        8.782320690   5.070687039   9.999984125
B        6.275431527   7.968918149  10.000019923
N        7.527854046   7.243487002   9.999984125
B        5.019649222  10.140610373  10.000019565
N        6.273713780   9.416575863   9.999984045
B        3.764859693  12.313970914  10.000019067
N        5.021185152  11.591779613   9.999983747
B        2.509676175  14.487668417  10.000018612
N        3.768042131  13.765630260   9.999983424
B        1.254790676  16.661537982  10.000019067
N        2.513555766  15.938464381   9.999983424
B       12.548234528   1.449836893  10.000019269
N       13.812129146   0.726631376   9.999983482
B       11.290050197   3.623341748  10.000019923
N       12.547380071   2.897638012   9.999983970
B       10.037200714   5.795849719  10.000020076
N       11.292080740   5.070687039   9.999984125
B        8.783303361   7.967663643  10.000020076
N       10.037200715   7.243725668   9.999984351
B        7.528281010  10.138917107  10.000019923
N        8.782734071   9.417002963   9.999984125
B        6.275062756  12.315289127  10.000019269
N        7.528468076  11.590648586   9.999983970
B        5.020689393  14.488500348  10.000018832
N        6.280695715  13.771456733   9.999983482
B        3.765903258  16.661853688  10.000018832
N        5.029856411  15.942695155   9.999983163
B       15.061357001   1.451589994  10.000019836
N       16.337983368   0.730492437   9.999984652
B       13.795490193   3.624133397  10.000019837
N       15.058192936   2.897224909   9.999983889
B       12.543965207   5.796444513  10.000020007
N       13.801786866   5.070240840   9.999984118
B       11.291098068   7.967663643  10.000020076
N       12.546547384   7.243487002   9.999984125
B       10.037200715  10.138287977  10.000020007
N       11.291667359   9.417002963   9.999984125
B        8.781686596  12.308295966  10.000019837
N       10.037200715  11.590695323   9.999984118
B        7.533142223  14.490840482  10.000019836
N        8.783516751  13.765282864   9.999983889
B        6.278554124  16.663631116  10.000018883
N        7.546966603  15.956980125   9.999984652
B       17.568758989   1.468224180  10.000012891
N       18.884114492   0.761532650   9.999951786
B       16.296048720   3.630178087  10.000020910
N       17.565603318   2.897200398   9.999983541
B       15.051004311   5.798747641  10.000019837
N       16.311876900   5.068669231   9.999983889
B       13.798969902   7.968918149  10.000019923
N       15.056112710   7.242890405   9.999983970
B       12.546120420  10.138917107  10.000019923
N       13.800687649   9.416575863   9.999984045
B       11.292714834  12.308295966  10.000019837
N       12.545933354  11.590648586   9.999983970
B       10.037200715  14.470820829  10.000020910
N       11.290884679  13.765282864   9.999983889
B        8.801248844  16.653997208  10.000012891
N       10.037200715  15.936776207   9.999983541
C        0.000000000   1.448745133   9.999943424
End final coordinates



     Writing output data file aiida.save
 
     init_run     :     26.81s CPU     27.51s WALL (       1 calls)
     electrons    :   3452.63s CPU   3546.30s WALL (       8 calls)
     update_pot   :     37.86s CPU     39.00s WALL (       7 calls)
     forces       :     94.43s CPU     99.19s WALL (       8 calls)
     stress       :    611.65s CPU    618.98s WALL (       8 calls)

     Called by init_run:
     wfcinit      :     13.30s CPU     13.54s WALL (       1 calls)
     wfcinit:atom :      0.07s CPU      0.10s WALL (       2 calls)
     wfcinit:wfcr :     12.89s CPU     13.04s WALL (       2 calls)
     potinit      :      2.22s CPU      2.33s WALL (       1 calls)

     Called by electrons:
     c_bands      :   2698.61s CPU   2747.18s WALL (      95 calls)
     sum_band     :    558.37s CPU    580.86s WALL (      95 calls)
     v_of_rho     :     64.47s CPU     67.06s WALL (      99 calls)
     v_h          :      3.29s CPU      3.42s WALL (      99 calls)
     v_xc         :     70.71s CPU     73.74s WALL (     115 calls)
     newd         :     98.40s CPU    117.24s WALL (      99 calls)
     PAW_pot      :      8.50s CPU      8.63s WALL (     106 calls)
     mix_rho      :     15.08s CPU     15.76s WALL (      95 calls)

     Called by c_bands:
     init_us_2    :     18.17s CPU     18.36s WALL (     428 calls)
     cegterg      :   2483.32s CPU   2527.10s WALL (     191 calls)

     Called by sum_band:
     sum_band:bec :      0.57s CPU      0.58s WALL (     204 calls)
     addusdens    :    141.11s CPU    158.66s WALL (      95 calls)

     Called by *egterg:
     h_psi        :   1535.33s CPU   1549.22s WALL (     954 calls)
     s_psi        :    187.13s CPU    187.92s WALL (     954 calls)
     g_psi        :      3.16s CPU      3.18s WALL (     761 calls)
     cdiaghg      :    302.36s CPU    303.65s WALL (     930 calls)
     cegterg:over :    189.03s CPU    192.40s WALL (     761 calls)
     cegterg:upda :    115.95s CPU    116.61s WALL (     761 calls)
     cegterg:last :     58.34s CPU     58.62s WALL (     197 calls)

     Called by h_psi:
     h_psi:pot    :   1520.51s CPU   1534.25s WALL (     954 calls)
     h_psi:calbec :    196.45s CPU    198.83s WALL (     954 calls)
     vloc_psi     :   1139.59s CPU   1149.87s WALL (     954 calls)
     add_vuspsi   :    184.45s CPU    185.53s WALL (     954 calls)

     General routines
     calbec       :    307.81s CPU    312.11s WALL (    1238 calls)
     fft          :     89.03s CPU     93.88s WALL (    3373 calls)
     ffts         :      2.48s CPU      2.52s WALL (     388 calls)
     fftw         :    872.76s CPU    881.44s WALL (  375532 calls)
     interpolate  :     13.23s CPU     13.84s WALL (     388 calls)
     davcio       :      0.00s CPU      0.04s WALL (       2 calls)
 
     Parallel routines
     fft_scatter  :    518.77s CPU    528.84s WALL (  379293 calls)

     PAW routines
     PAW_pot      :      8.50s CPU      8.63s WALL (     106 calls)
     PAW_symme    :      0.12s CPU      0.13s WALL (     201 calls)
 
     PWSCF        :     1h10m CPU        1h12m WALL

 
   This run was terminated on:  21:38:43  29Feb2020            

=------------------------------------------------------------------------------=
   JOB DONE.
=------------------------------------------------------------------------------=
