
     Program PWSCF v.6.1 starts on 29Feb2020 at 20:25: 9 

     This program is part of the open-source Quantum ESPRESSO suite
     for quantum simulation of materials; please cite
         "P. Giannozzi et al., J. Phys.:Condens. Matter 21 395502 (2009);
          URL http://www.quantum-espresso.org", 
     in publications or presentations arising from this work. More details at
     http://www.quantum-espresso.org/quote

     Parallel version (MPI), running on    84 processors
     K-points division:     npool     =       2
     R & G space division:  proc/nbgrp/npool/nimage =      42
     Reading input from aiida.in

     Current dimensions of program PWSCF are:
     Max number of different atomic species (ntypx) = 10
     Max number of k-points (npk) =  40000
     Max angular momentum in pseudopotentials (lmaxx) =  3
               file B.pbe-n-kjpaw_psl.0.1.UPF: wavefunction(s)  2P renormalized
               file C.pbe-n-kjpaw_psl.1.0.0.UPF: wavefunction(s)  2S 2P renormalized

     Subspace diagonalization in iterative solution of the eigenvalue problem:
     a serial algorithm will be used

 
     Parallelization info
     --------------------
     sticks:   dense  smooth     PW     G-vecs:    dense   smooth      PW
     Min         583     292     76                74015    26160    3470
     Max         584     293     77                74022    26165    3475
     Sum       24523   12283   3205              3108819  1098825  145809
 


     bravais-lattice index     =            0
     lattice parameter (alat)  =      28.4513  a.u.
     unit-cell volume          =   19945.2205 (a.u.)^3
     number of atoms/cell      =           72
     number of atomic types    =            3
     number of electrons       =       288.00
     number of Kohn-Sham states=          173
     kinetic-energy cutoff     =      55.0000  Ry
     charge density cutoff     =     440.0000  Ry
     convergence threshold     =      1.0E-09
     mixing beta               =       0.3000
     number of iterations used =            8  plain     mixing
     Exchange-correlation      = PBE ( 1  4  3  4 0 0)
     nstep                     =          200


     celldm(1)=  28.451341  celldm(2)=   0.000000  celldm(3)=   0.000000
     celldm(4)=   0.000000  celldm(5)=   0.000000  celldm(6)=   0.000000

     crystal axes: (cart. coord. in units of alat)
               a(1) = (   1.000000   0.000000   0.000000 )  
               a(2) = (  -0.500000   0.866025   0.000000 )  
               a(3) = (   0.000000   0.000000   1.000000 )  

     reciprocal axes: (cart. coord. in units 2 pi/alat)
               b(1) = (  1.000000  0.577350  0.000000 )  
               b(2) = (  0.000000  1.154701  0.000000 )  
               b(3) = (  0.000000  0.000000  1.000000 )  


     PseudoPot. # 1 for  B read from file:
     ./pseudo/B.pbe-n-kjpaw_psl.0.1.UPF
     MD5 check sum: b4345a612e0782cca08559f453f3313f
     Pseudo is Projector augmented-wave + core cor, Zval =  3.0
     Generated using "atomic" code by A. Dal Corso  v.5.0.99 svn rev. 10869
     Shape of augmentation charge: BESSEL
     Using radial grid of 1059 points,  4 beta functions with: 
                l(1) =   0
                l(2) =   0
                l(3) =   1
                l(4) =   1
     Q(r) pseudized with 0 coefficients 


     PseudoPot. # 2 for  C read from file:
     ./pseudo/C.pbe-n-kjpaw_psl.1.0.0.UPF
     MD5 check sum: 5d2aebdfa2cae82b50a7e79e9516da0f
     Pseudo is Projector augmented-wave + core cor, Zval =  4.0
     Generated using "atomic" code by A. Dal Corso  v.5.1
     Shape of augmentation charge: PSQ
     Using radial grid of 1073 points,  4 beta functions with: 
                l(1) =   0
                l(2) =   0
                l(3) =   1
                l(4) =   1
     Q(r) pseudized with 0 coefficients 


     PseudoPot. # 3 for  N read from file:
     ./pseudo/N.pbe.theos.UPF
     MD5 check sum: 1fde47ee573fe9ed3106b9b4217eb757
     Pseudo is Ultrasoft + core correction, Zval =  5.0
     Generated using "atomic" code by A. Dal Corso  v.5.1
     Using radial grid of 1085 points,  4 beta functions with: 
                l(1) =   0
                l(2) =   0
                l(3) =   1
                l(4) =   1
     Q(r) pseudized with 0 coefficients 


     atomic species   valence    mass     pseudopotential
        B              3.00    10.81100      B( 1.00)
        C              4.00    12.01070      C( 1.00)
        N              5.00    14.00670      N( 1.00)

     Starting magnetic structure 
     atomic species   magnetization
        B            0.400
        C            0.000
        N            0.000

      6 Sym. Ops. (no inversion) found ( 4 have fractional translation)


                                    s                        frac. trans.

      isym =  1     identity                                     

 cryst.   s( 1) = (     1          0          0      )
                  (     0          1          0      )
                  (     0          0          1      )

 cart.    s( 1) = (  1.0000000  0.0000000  0.0000000 )
                  (  0.0000000  1.0000000  0.0000000 )
                  (  0.0000000  0.0000000  1.0000000 )


      isym =  2     120 deg rotation - cryst. axis [0,0,1]       

 cryst.   s( 2) = (     0          1          0      )    f =( -0.1666667 )
                  (    -1         -1          0      )       ( -0.1666667 )
                  (     0          0          1      )       (  0.0000000 )

 cart.    s( 2) = ( -0.5000000 -0.8660254  0.0000000 )    f =( -0.0833333 )
                  (  0.8660254 -0.5000000  0.0000000 )       ( -0.1443376 )
                  (  0.0000000  0.0000000  1.0000000 )       (  0.0000000 )


      isym =  3     120 deg rotation - cryst. axis [0,0,-1]      

 cryst.   s( 3) = (    -1         -1          0      )    f =( -0.0000000 )
                  (     1          0          0      )       ( -0.1666667 )
                  (     0          0          1      )       (  0.0000000 )

 cart.    s( 3) = ( -0.5000000  0.8660254  0.0000000 )    f =(  0.0833333 )
                  ( -0.8660254 -0.5000000  0.0000000 )       ( -0.1443376 )
                  (  0.0000000  0.0000000  1.0000000 )       (  0.0000000 )


      isym =  4     inv. 180 deg rotation - cart. axis [1,0,0]   

 cryst.   s( 4) = (    -1          0          0      )
                  (     1          1          0      )
                  (     0          0          1      )

 cart.    s( 4) = ( -1.0000000  0.0000000  0.0000000 )
                  (  0.0000000  1.0000000  0.0000000 )
                  (  0.0000000  0.0000000  1.0000000 )


      isym =  5     inv. 180 deg rotation - cryst. axis [0,1,0]  

 cryst.   s( 5) = (     1          1          0      )    f =( -0.0000000 )
                  (     0         -1          0      )       ( -0.1666667 )
                  (     0          0          1      )       (  0.0000000 )

 cart.    s( 5) = (  0.5000000  0.8660254  0.0000000 )    f =(  0.0833333 )
                  (  0.8660254 -0.5000000  0.0000000 )       ( -0.1443376 )
                  (  0.0000000  0.0000000  1.0000000 )       (  0.0000000 )


      isym =  6     inv. 180 deg rotation - cryst. axis [1,1,0]  

 cryst.   s( 6) = (     0         -1          0      )    f =( -0.1666667 )
                  (    -1          0          0      )       ( -0.1666667 )
                  (     0          0          1      )       (  0.0000000 )

 cart.    s( 6) = (  0.5000000 -0.8660254  0.0000000 )    f =( -0.0833333 )
                  ( -0.8660254 -0.5000000  0.0000000 )       ( -0.1443376 )
                  (  0.0000000  0.0000000  1.0000000 )       (  0.0000000 )


   Cartesian axes

     site n.     atom                  positions (alat units)
         1           N   tau(   1) = (   0.0833333   0.0481125   0.6641958  )
         2           B   tau(   2) = (  -0.0833333   0.2405626   0.6641958  )
         3           N   tau(   3) = (   0.0000000   0.1924501   0.6641958  )
         4           B   tau(   4) = (  -0.1666667   0.3849002   0.6641958  )
         5           N   tau(   5) = (  -0.0833333   0.3367877   0.6641958  )
         6           B   tau(   6) = (  -0.2500000   0.5292377   0.6641958  )
         7           N   tau(   7) = (  -0.1666667   0.4811252   0.6641958  )
         8           B   tau(   8) = (  -0.3333333   0.6735753   0.6641958  )
         9           N   tau(   9) = (  -0.2500000   0.6254628   0.6641958  )
        10           B   tau(  10) = (  -0.4166667   0.8179129   0.6641958  )
        11           N   tau(  11) = (  -0.3333333   0.7698004   0.6641958  )
        12           B   tau(  12) = (   0.1666667   0.0962250   0.6641958  )
        13           N   tau(  13) = (   0.2500000   0.0481125   0.6641958  )
        14           B   tau(  14) = (   0.0833333   0.2405626   0.6641958  )
        15           N   tau(  15) = (   0.1666667   0.1924501   0.6641958  )
        16           B   tau(  16) = (   0.0000000   0.3849002   0.6641958  )
        17           N   tau(  17) = (   0.0833333   0.3367877   0.6641958  )
        18           B   tau(  18) = (  -0.0833333   0.5292377   0.6641958  )
        19           N   tau(  19) = (   0.0000000   0.4811252   0.6641958  )
        20           B   tau(  20) = (  -0.1666667   0.6735753   0.6641958  )
        21           N   tau(  21) = (  -0.0833333   0.6254628   0.6641958  )
        22           B   tau(  22) = (  -0.2500000   0.8179129   0.6641958  )
        23           N   tau(  23) = (  -0.1666667   0.7698004   0.6641958  )
        24           B   tau(  24) = (   0.3333333   0.0962250   0.6641958  )
        25           N   tau(  25) = (   0.4166667   0.0481125   0.6641958  )
        26           B   tau(  26) = (   0.2500000   0.2405626   0.6641958  )
        27           N   tau(  27) = (   0.3333333   0.1924501   0.6641958  )
        28           B   tau(  28) = (   0.1666667   0.3849002   0.6641958  )
        29           N   tau(  29) = (   0.2500000   0.3367877   0.6641958  )
        30           B   tau(  30) = (   0.0833333   0.5292377   0.6641958  )
        31           N   tau(  31) = (   0.1666667   0.4811252   0.6641958  )
        32           B   tau(  32) = (   0.0000000   0.6735753   0.6641958  )
        33           N   tau(  33) = (   0.0833333   0.6254628   0.6641958  )
        34           B   tau(  34) = (  -0.0833333   0.8179129   0.6641958  )
        35           N   tau(  35) = (   0.0000000   0.7698004   0.6641958  )
        36           B   tau(  36) = (   0.5000000   0.0962250   0.6641958  )
        37           N   tau(  37) = (   0.5833333   0.0481125   0.6641958  )
        38           B   tau(  38) = (   0.4166667   0.2405626   0.6641958  )
        39           N   tau(  39) = (   0.5000000   0.1924501   0.6641958  )
        40           B   tau(  40) = (   0.3333333   0.3849002   0.6641958  )
        41           N   tau(  41) = (   0.4166667   0.3367877   0.6641958  )
        42           B   tau(  42) = (   0.2500000   0.5292377   0.6641958  )
        43           N   tau(  43) = (   0.3333333   0.4811252   0.6641958  )
        44           B   tau(  44) = (   0.1666667   0.6735753   0.6641958  )
        45           N   tau(  45) = (   0.2500000   0.6254628   0.6641958  )
        46           B   tau(  46) = (   0.0833333   0.8179129   0.6641958  )
        47           N   tau(  47) = (   0.1666667   0.7698004   0.6641958  )
        48           B   tau(  48) = (   0.6666667   0.0962250   0.6641958  )
        49           N   tau(  49) = (   0.7500000   0.0481125   0.6641958  )
        50           B   tau(  50) = (   0.5833333   0.2405626   0.6641958  )
        51           N   tau(  51) = (   0.6666667   0.1924501   0.6641958  )
        52           B   tau(  52) = (   0.5000000   0.3849002   0.6641958  )
        53           N   tau(  53) = (   0.5833333   0.3367877   0.6641958  )
        54           B   tau(  54) = (   0.4166667   0.5292377   0.6641958  )
        55           N   tau(  55) = (   0.5000000   0.4811252   0.6641958  )
        56           B   tau(  56) = (   0.3333333   0.6735753   0.6641958  )
        57           N   tau(  57) = (   0.4166667   0.6254628   0.6641958  )
        58           B   tau(  58) = (   0.2500000   0.8179129   0.6641958  )
        59           N   tau(  59) = (   0.3333333   0.7698004   0.6641958  )
        60           B   tau(  60) = (   0.8333333   0.0962250   0.6641958  )
        61           N   tau(  61) = (   0.9166667   0.0481125   0.6641958  )
        62           B   tau(  62) = (   0.7500000   0.2405626   0.6641958  )
        63           N   tau(  63) = (   0.8333333   0.1924501   0.6641958  )
        64           B   tau(  64) = (   0.6666667   0.3849002   0.6641958  )
        65           N   tau(  65) = (   0.7500000   0.3367877   0.6641958  )
        66           B   tau(  66) = (   0.5833333   0.5292377   0.6641958  )
        67           N   tau(  67) = (   0.6666667   0.4811252   0.6641958  )
        68           B   tau(  68) = (   0.5000000   0.6735753   0.6641958  )
        69           N   tau(  69) = (   0.5833333   0.6254628   0.6641958  )
        70           B   tau(  70) = (   0.4166667   0.8179129   0.6641958  )
        71           N   tau(  71) = (   0.5000000   0.7698004   0.6641958  )
        72           C   tau(  72) = (   0.0000000   0.0962250   0.6641958  )

   Crystallographic axes

     site n.     atom                  positions (cryst. coord.)
         1           N   tau(   1) = (  0.1111111  0.0555556  0.6641958  )
         2           B   tau(   2) = (  0.0555556  0.2777778  0.6641958  )
         3           N   tau(   3) = (  0.1111111  0.2222222  0.6641958  )
         4           B   tau(   4) = (  0.0555556  0.4444444  0.6641958  )
         5           N   tau(   5) = (  0.1111111  0.3888889  0.6641958  )
         6           B   tau(   6) = (  0.0555556  0.6111111  0.6641958  )
         7           N   tau(   7) = (  0.1111111  0.5555556  0.6641958  )
         8           B   tau(   8) = (  0.0555556  0.7777778  0.6641958  )
         9           N   tau(   9) = (  0.1111111  0.7222222  0.6641958  )
        10           B   tau(  10) = (  0.0555556  0.9444444  0.6641958  )
        11           N   tau(  11) = (  0.1111111  0.8888889  0.6641958  )
        12           B   tau(  12) = (  0.2222222  0.1111111  0.6641958  )
        13           N   tau(  13) = (  0.2777778  0.0555556  0.6641958  )
        14           B   tau(  14) = (  0.2222222  0.2777778  0.6641958  )
        15           N   tau(  15) = (  0.2777778  0.2222222  0.6641958  )
        16           B   tau(  16) = (  0.2222222  0.4444444  0.6641958  )
        17           N   tau(  17) = (  0.2777778  0.3888889  0.6641958  )
        18           B   tau(  18) = (  0.2222222  0.6111111  0.6641958  )
        19           N   tau(  19) = (  0.2777778  0.5555556  0.6641958  )
        20           B   tau(  20) = (  0.2222222  0.7777778  0.6641958  )
        21           N   tau(  21) = (  0.2777778  0.7222222  0.6641958  )
        22           B   tau(  22) = (  0.2222222  0.9444444  0.6641958  )
        23           N   tau(  23) = (  0.2777778  0.8888889  0.6641958  )
        24           B   tau(  24) = (  0.3888889  0.1111111  0.6641958  )
        25           N   tau(  25) = (  0.4444444  0.0555556  0.6641958  )
        26           B   tau(  26) = (  0.3888889  0.2777778  0.6641958  )
        27           N   tau(  27) = (  0.4444444  0.2222222  0.6641958  )
        28           B   tau(  28) = (  0.3888889  0.4444444  0.6641958  )
        29           N   tau(  29) = (  0.4444444  0.3888889  0.6641958  )
        30           B   tau(  30) = (  0.3888889  0.6111111  0.6641958  )
        31           N   tau(  31) = (  0.4444444  0.5555556  0.6641958  )
        32           B   tau(  32) = (  0.3888889  0.7777778  0.6641958  )
        33           N   tau(  33) = (  0.4444444  0.7222222  0.6641958  )
        34           B   tau(  34) = (  0.3888889  0.9444444  0.6641958  )
        35           N   tau(  35) = (  0.4444444  0.8888889  0.6641958  )
        36           B   tau(  36) = (  0.5555556  0.1111111  0.6641958  )
        37           N   tau(  37) = (  0.6111111  0.0555556  0.6641958  )
        38           B   tau(  38) = (  0.5555556  0.2777778  0.6641958  )
        39           N   tau(  39) = (  0.6111111  0.2222222  0.6641958  )
        40           B   tau(  40) = (  0.5555556  0.4444444  0.6641958  )
        41           N   tau(  41) = (  0.6111111  0.3888889  0.6641958  )
        42           B   tau(  42) = (  0.5555556  0.6111111  0.6641958  )
        43           N   tau(  43) = (  0.6111111  0.5555556  0.6641958  )
        44           B   tau(  44) = (  0.5555556  0.7777778  0.6641958  )
        45           N   tau(  45) = (  0.6111111  0.7222222  0.6641958  )
        46           B   tau(  46) = (  0.5555556  0.9444444  0.6641958  )
        47           N   tau(  47) = (  0.6111111  0.8888889  0.6641958  )
        48           B   tau(  48) = (  0.7222222  0.1111111  0.6641958  )
        49           N   tau(  49) = (  0.7777778  0.0555556  0.6641958  )
        50           B   tau(  50) = (  0.7222222  0.2777778  0.6641958  )
        51           N   tau(  51) = (  0.7777778  0.2222222  0.6641958  )
        52           B   tau(  52) = (  0.7222222  0.4444444  0.6641958  )
        53           N   tau(  53) = (  0.7777778  0.3888889  0.6641958  )
        54           B   tau(  54) = (  0.7222222  0.6111111  0.6641958  )
        55           N   tau(  55) = (  0.7777778  0.5555556  0.6641958  )
        56           B   tau(  56) = (  0.7222222  0.7777778  0.6641958  )
        57           N   tau(  57) = (  0.7777778  0.7222222  0.6641958  )
        58           B   tau(  58) = (  0.7222222  0.9444444  0.6641958  )
        59           N   tau(  59) = (  0.7777778  0.8888889  0.6641958  )
        60           B   tau(  60) = (  0.8888889  0.1111111  0.6641958  )
        61           N   tau(  61) = (  0.9444444  0.0555556  0.6641958  )
        62           B   tau(  62) = (  0.8888889  0.2777778  0.6641958  )
        63           N   tau(  63) = (  0.9444444  0.2222222  0.6641958  )
        64           B   tau(  64) = (  0.8888889  0.4444444  0.6641958  )
        65           N   tau(  65) = (  0.9444444  0.3888889  0.6641958  )
        66           B   tau(  66) = (  0.8888889  0.6111111  0.6641958  )
        67           N   tau(  67) = (  0.9444444  0.5555556  0.6641958  )
        68           B   tau(  68) = (  0.8888889  0.7777778  0.6641958  )
        69           N   tau(  69) = (  0.9444444  0.7222222  0.6641958  )
        70           B   tau(  70) = (  0.8888889  0.9444444  0.6641958  )
        71           N   tau(  71) = (  0.9444444  0.8888889  0.6641958  )
        72           C   tau(  72) = (  0.0555556  0.1111111  0.6641958  )

     number of k points=     3  Marzari-Vanderbilt smearing, width (Ry)=  0.0050
                       cart. coord. in units 2pi/alat
        k(    1) = (   0.0000000   0.0000000   0.0000000), wk =   0.1111111
        k(    2) = (   0.0000000   0.3849002   0.0000000), wk =   0.6666667
        k(    3) = (   0.3333333   0.5773503   0.0000000), wk =   0.2222222

                       cryst. coord.
        k(    1) = (   0.0000000   0.0000000   0.0000000), wk =   0.1111111
        k(    2) = (   0.0000000   0.3333333   0.0000000), wk =   0.6666667
        k(    3) = (   0.3333333   0.3333333   0.0000000), wk =   0.2222222

     Dense  grid:  3108819 G-vectors     FFT dimensions: ( 192, 192, 192)

     Smooth grid:  1098825 G-vectors     FFT dimensions: ( 135, 135, 135)

     Estimated max dynamical RAM per process >     222.32MB

     Estimated total allocated dynamical RAM >   18674.73MB
     Generating pointlists ...
     new r_m :   0.0397 (alat units)  1.1293 (a.u.) for type    1
     new r_m :   0.0397 (alat units)  1.1293 (a.u.) for type    2
     new r_m :   0.0397 (alat units)  1.1293 (a.u.) for type    3

     Check: negative/imaginary core charge=   -0.000002    0.000000

     Initial potential from superposition of free atoms
     Check: negative starting charge=(component1):   -0.000248
     Check: negative starting charge=(component2):   -0.000241

     starting charge  288.98976, renormalised to  288.00000

     negative rho (up, down):  2.472E-04 2.404E-04
     Starting wfc are  288 randomized atomic wfcs
     Checking if some PAW data can be deallocated... 
       node    0, deallocated PAW data for type:  1
       node    0, deallocated PAW data for type:  2
       node    1, deallocated PAW data for type:  1
       node    1, deallocated PAW data for type:  2
       node    2, deallocated PAW data for type:  2
       node    3, deallocated PAW data for type:  2
       node    4, deallocated PAW data for type:  1
       node    4, deallocated PAW data for type:  2
       node    5, deallocated PAW data for type:  1
       node    5, deallocated PAW data for type:  2
       node    6, deallocated PAW data for type:  2
       node    7, deallocated PAW data for type:  2
       node    8, deallocated PAW data for type:  1
       node    8, deallocated PAW data for type:  2
       node    9, deallocated PAW data for type:  1
       node    9, deallocated PAW data for type:  2
       node   10, deallocated PAW data for type:  2
       node   11, deallocated PAW data for type:  2
       node   12, deallocated PAW data for type:  1
       node   12, deallocated PAW data for type:  2
       node   13, deallocated PAW data for type:  1
       node   13, deallocated PAW data for type:  2
       node   14, deallocated PAW data for type:  2
       node   15, deallocated PAW data for type:  2
       node   16, deallocated PAW data for type:  1
       node   16, deallocated PAW data for type:  2
       node   17, deallocated PAW data for type:  1
       node   17, deallocated PAW data for type:  2
       node   18, deallocated PAW data for type:  2
       node   19, deallocated PAW data for type:  2
       node   20, deallocated PAW data for type:  1
       node   20, deallocated PAW data for type:  2
       node   21, deallocated PAW data for type:  1
       node   21, deallocated PAW data for type:  2
       node   22, deallocated PAW data for type:  2
       node   23, deallocated PAW data for type:  2
       node   24, deallocated PAW data for type:  1
       node   24, deallocated PAW data for type:  2
       node   25, deallocated PAW data for type:  2
       node   26, deallocated PAW data for type:  1
       node   26, deallocated PAW data for type:  2
       node   27, deallocated PAW data for type:  2
       node   28, deallocated PAW data for type:  1
       node   28, deallocated PAW data for type:  2
       node   29, deallocated PAW data for type:  2
       node   30, deallocated PAW data for type:  1
       node   30, deallocated PAW data for type:  2
       node   31, deallocated PAW data for type:  2
       node   32, deallocated PAW data for type:  1
       node   32, deallocated PAW data for type:  2
       node   33, deallocated PAW data for type:  2
       node   34, deallocated PAW data for type:  1
       node   34, deallocated PAW data for type:  2
       node   35, deallocated PAW data for type:  2
       node   36, deallocated PAW data for type:  1
       node   36, deallocated PAW data for type:  2
       node   37, deallocated PAW data for type:  2
       node   38, deallocated PAW data for type:  1
       node   38, deallocated PAW data for type:  2
       node   39, deallocated PAW data for type:  2
       node   40, deallocated PAW data for type:  1
       node   40, deallocated PAW data for type:  2
       node   41, deallocated PAW data for type:  2
       node   42, deallocated PAW data for type:  1
       node   42, deallocated PAW data for type:  2
       node   43, deallocated PAW data for type:  2
       node   44, deallocated PAW data for type:  1
       node   44, deallocated PAW data for type:  2
       node   45, deallocated PAW data for type:  2
       node   46, deallocated PAW data for type:  1
       node   46, deallocated PAW data for type:  2
       node   47, deallocated PAW data for type:  2
       node   48, deallocated PAW data for type:  1
       node   48, deallocated PAW data for type:  2
       node   49, deallocated PAW data for type:  2
       node   50, deallocated PAW data for type:  1
       node   50, deallocated PAW data for type:  2
       node   51, deallocated PAW data for type:  2
       node   52, deallocated PAW data for type:  1
       node   52, deallocated PAW data for type:  2
       node   53, deallocated PAW data for type:  2
       node   54, deallocated PAW data for type:  1
       node   54, deallocated PAW data for type:  2
       node   55, deallocated PAW data for type:  2
       node   56, deallocated PAW data for type:  1
       node   56, deallocated PAW data for type:  2
       node   57, deallocated PAW data for type:  2
       node   58, deallocated PAW data for type:  1
       node   58, deallocated PAW data for type:  2
       node   59, deallocated PAW data for type:  2
       node   60, deallocated PAW data for type:  1
       node   60, deallocated PAW data for type:  2
       node   61, deallocated PAW data for type:  2
       node   62, deallocated PAW data for type:  1
       node   62, deallocated PAW data for type:  2
       node   63, deallocated PAW data for type:  2
       node   64, deallocated PAW data for type:  1
       node   64, deallocated PAW data for type:  2
       node   65, deallocated PAW data for type:  2
       node   66, deallocated PAW data for type:  1
       node   66, deallocated PAW data for type:  2
       node   67, deallocated PAW data for type:  2
       node   68, deallocated PAW data for type:  1
       node   68, deallocated PAW data for type:  2
       node   69, deallocated PAW data for type:  2
       node   70, deallocated PAW data for type:  1
       node   70, deallocated PAW data for type:  2
       node   71, deallocated PAW data for type:  2
       node   72, deallocated PAW data for type:  1
       node   72, deallocated PAW data for type:  2
       node   73, deallocated PAW data for type:  2
       node   74, deallocated PAW data for type:  1
       node   74, deallocated PAW data for type:  2
       node   75, deallocated PAW data for type:  2
       node   76, deallocated PAW data for type:  1
       node   76, deallocated PAW data for type:  2
       node   77, deallocated PAW data for type:  2
       node   78, deallocated PAW data for type:  1
       node   78, deallocated PAW data for type:  2
       node   79, deallocated PAW data for type:  2
       node   80, deallocated PAW data for type:  1
       node   80, deallocated PAW data for type:  2
       node   81, deallocated PAW data for type:  2
       node   82, deallocated PAW data for type:  1
       node   82, deallocated PAW data for type:  2
       node   83, deallocated PAW data for type:  1

     total cpu time spent up to now is       12.8 secs

     per-process dynamical memory:   210.9 Mb

     Self-consistent Calculation

     iteration #  1     ecut=    55.00 Ry     beta=0.30
     Davidson diagonalization with overlap
     ethr =  1.00E-02,  avg # of iterations =  3.0

     negative rho (up, down):  1.597E-04 1.756E-04

     total cpu time spent up to now is       30.6 secs

     total energy              =   -1151.27347698 Ry
     Harris-Foulkes estimate   =   -1157.07428934 Ry
     estimated scf accuracy    <      16.03470277 Ry

     total magnetization       =    -0.00 Bohr mag/cell
     absolute magnetization    =     6.01 Bohr mag/cell

     iteration #  2     ecut=    55.00 Ry     beta=0.30
     Davidson diagonalization with overlap
     ethr =  5.57E-03,  avg # of iterations =  2.0

     negative rho (up, down):  3.304E-04 3.714E-04

     total cpu time spent up to now is       42.9 secs

     total energy              =   -1151.85634698 Ry
     Harris-Foulkes estimate   =   -1152.72443729 Ry
     estimated scf accuracy    <       2.70032108 Ry

     total magnetization       =     0.00 Bohr mag/cell
     absolute magnetization    =     5.68 Bohr mag/cell

     iteration #  3     ecut=    55.00 Ry     beta=0.30
     Davidson diagonalization with overlap
     ethr =  9.38E-04,  avg # of iterations = 11.5

     negative rho (up, down):  5.662E-04 6.053E-04

     total cpu time spent up to now is       69.1 secs

     total energy              =   -1152.52582516 Ry
     Harris-Foulkes estimate   =   -1152.80191060 Ry
     estimated scf accuracy    <       0.72600628 Ry

     total magnetization       =     0.00 Bohr mag/cell
     absolute magnetization    =     3.99 Bohr mag/cell

     iteration #  4     ecut=    55.00 Ry     beta=0.30
     Davidson diagonalization with overlap
     ethr =  2.52E-04,  avg # of iterations = 12.8

     negative rho (up, down):  6.990E-04 7.476E-04

     total cpu time spent up to now is       97.8 secs

     total energy              =   -1152.61432305 Ry
     Harris-Foulkes estimate   =   -1153.05761829 Ry
     estimated scf accuracy    <       1.10893576 Ry

     total magnetization       =     0.00 Bohr mag/cell
     absolute magnetization    =     2.40 Bohr mag/cell

     iteration #  5     ecut=    55.00 Ry     beta=0.30
     Davidson diagonalization with overlap
     ethr =  2.52E-04,  avg # of iterations =  2.5

     negative rho (up, down):  7.578E-04 8.076E-04

     total cpu time spent up to now is      113.2 secs

     total energy              =   -1152.74819843 Ry
     Harris-Foulkes estimate   =   -1152.75324865 Ry
     estimated scf accuracy    <       0.05757038 Ry

     total magnetization       =    -0.00 Bohr mag/cell
     absolute magnetization    =     1.67 Bohr mag/cell

     iteration #  6     ecut=    55.00 Ry     beta=0.30
     Davidson diagonalization with overlap
     ethr =  2.00E-05,  avg # of iterations = 17.7

     negative rho (up, down):  9.082E-04 9.181E-04

     total cpu time spent up to now is      144.8 secs

     total energy              =   -1152.77195518 Ry
     Harris-Foulkes estimate   =   -1152.76636175 Ry
     estimated scf accuracy    <       0.00729684 Ry

     total magnetization       =    -0.03 Bohr mag/cell
     absolute magnetization    =     1.48 Bohr mag/cell

     iteration #  7     ecut=    55.00 Ry     beta=0.30
     Davidson diagonalization with overlap
     ethr =  2.53E-06,  avg # of iterations =  8.3

     negative rho (up, down):  9.500E-04 9.485E-04

     total cpu time spent up to now is      166.7 secs

     total energy              =   -1152.77547834 Ry
     Harris-Foulkes estimate   =   -1152.77491742 Ry
     estimated scf accuracy    <       0.00163034 Ry

     total magnetization       =    -0.04 Bohr mag/cell
     absolute magnetization    =     0.84 Bohr mag/cell

     iteration #  8     ecut=    55.00 Ry     beta=0.30
     Davidson diagonalization with overlap
     ethr =  5.66E-07,  avg # of iterations =  3.0

     negative rho (up, down):  9.490E-04 9.531E-04

     total cpu time spent up to now is      184.2 secs

     total energy              =   -1152.77623547 Ry
     Harris-Foulkes estimate   =   -1152.77591684 Ry
     estimated scf accuracy    <       0.00041340 Ry

     total magnetization       =    -0.04 Bohr mag/cell
     absolute magnetization    =     0.56 Bohr mag/cell

     iteration #  9     ecut=    55.00 Ry     beta=0.30
     Davidson diagonalization with overlap
     ethr =  1.44E-07,  avg # of iterations =  3.2

     negative rho (up, down):  9.513E-04 9.570E-04

     total cpu time spent up to now is      205.1 secs

     total energy              =   -1152.77660991 Ry
     Harris-Foulkes estimate   =   -1152.77657033 Ry
     estimated scf accuracy    <       0.00036245 Ry

     total magnetization       =    -0.03 Bohr mag/cell
     absolute magnetization    =     0.28 Bohr mag/cell

     iteration # 10     ecut=    55.00 Ry     beta=0.30
     Davidson diagonalization with overlap
     ethr =  1.26E-07,  avg # of iterations =  2.0

     negative rho (up, down):  9.551E-04 9.604E-04

     total cpu time spent up to now is      219.1 secs

     total energy              =   -1152.77661608 Ry
     Harris-Foulkes estimate   =   -1152.77664545 Ry
     estimated scf accuracy    <       0.00014218 Ry

     total magnetization       =    -0.02 Bohr mag/cell
     absolute magnetization    =     0.19 Bohr mag/cell

     iteration # 11     ecut=    55.00 Ry     beta=0.30
     Davidson diagonalization with overlap
     ethr =  4.94E-08,  avg # of iterations =  3.0

     negative rho (up, down):  9.594E-04 9.636E-04

     total cpu time spent up to now is      239.4 secs

     total energy              =   -1152.77669622 Ry
     Harris-Foulkes estimate   =   -1152.77669474 Ry
     estimated scf accuracy    <       0.00000510 Ry

     total magnetization       =    -0.00 Bohr mag/cell
     absolute magnetization    =     0.04 Bohr mag/cell

     iteration # 12     ecut=    55.00 Ry     beta=0.30
     Davidson diagonalization with overlap
     ethr =  1.77E-09,  avg # of iterations =  4.0

     negative rho (up, down):  9.632E-04 9.662E-04

     total cpu time spent up to now is      259.5 secs

     total energy              =   -1152.77669942 Ry
     Harris-Foulkes estimate   =   -1152.77669920 Ry
     estimated scf accuracy    <       0.00000172 Ry

     total magnetization       =    -0.00 Bohr mag/cell
     absolute magnetization    =     0.01 Bohr mag/cell

     iteration # 13     ecut=    55.00 Ry     beta=0.30
     Davidson diagonalization with overlap
     ethr =  5.98E-10,  avg # of iterations =  2.0

     negative rho (up, down):  9.661E-04 9.680E-04

     total cpu time spent up to now is      272.1 secs

     total energy              =   -1152.77669951 Ry
     Harris-Foulkes estimate   =   -1152.77669958 Ry
     estimated scf accuracy    <       0.00000074 Ry

     total magnetization       =    -0.00 Bohr mag/cell
     absolute magnetization    =     0.01 Bohr mag/cell

     iteration # 14     ecut=    55.00 Ry     beta=0.30
     Davidson diagonalization with overlap
     ethr =  2.58E-10,  avg # of iterations =  3.3

     negative rho (up, down):  9.680E-04 9.693E-04

     total cpu time spent up to now is      289.1 secs

     total energy              =   -1152.77669976 Ry
     Harris-Foulkes estimate   =   -1152.77669975 Ry
     estimated scf accuracy    <       0.00000005 Ry

     total magnetization       =    -0.00 Bohr mag/cell
     absolute magnetization    =     0.00 Bohr mag/cell

     iteration # 15     ecut=    55.00 Ry     beta=0.30
     Davidson diagonalization with overlap
     ethr =  1.85E-11,  avg # of iterations =  3.5

     negative rho (up, down):  9.693E-04 9.702E-04

     total cpu time spent up to now is      309.0 secs

     total energy              =   -1152.77669979 Ry
     Harris-Foulkes estimate   =   -1152.77669979 Ry
     estimated scf accuracy    <       0.00000002 Ry

     total magnetization       =    -0.00 Bohr mag/cell
     absolute magnetization    =     0.00 Bohr mag/cell

     iteration # 16     ecut=    55.00 Ry     beta=0.30
     Davidson diagonalization with overlap
     ethr =  6.03E-12,  avg # of iterations =  3.0

     negative rho (up, down):  9.702E-04 9.709E-04

     total cpu time spent up to now is      328.6 secs

     total energy              =   -1152.77669980 Ry
     Harris-Foulkes estimate   =   -1152.77669980 Ry
     estimated scf accuracy    <          2.4E-09 Ry

     total magnetization       =    -0.00 Bohr mag/cell
     absolute magnetization    =     0.00 Bohr mag/cell

     iteration # 17     ecut=    55.00 Ry     beta=0.30
     Davidson diagonalization with overlap
     ethr =  8.19E-13,  avg # of iterations =  3.8

     negative rho (up, down):  9.725E-04 9.725E-04
 
     Magnetic moment per site:
     atom:    1    charge:    2.8343    magn:   -0.0000    constr:    0.0000
     atom:    2    charge:    0.8817    magn:   -0.0000    constr:    0.0000
     atom:    3    charge:    2.8343    magn:   -0.0000    constr:    0.0000
     atom:    4    charge:    0.8803    magn:   -0.0000    constr:    0.0000
     atom:    5    charge:    2.8680    magn:    0.0000    constr:    0.0000
     atom:    6    charge:    0.8806    magn:    0.0000    constr:    0.0000
     atom:    7    charge:    2.8691    magn:   -0.0000    constr:    0.0000
     atom:    8    charge:    0.8803    magn:   -0.0000    constr:    0.0000
     atom:    9    charge:    2.8691    magn:   -0.0000    constr:    0.0000
     atom:   10    charge:    0.8817    magn:   -0.0000    constr:    0.0000
     atom:   11    charge:    2.8680    magn:    0.0000    constr:    0.0000
     atom:   12    charge:    0.8817    magn:   -0.0000    constr:    0.0000
     atom:   13    charge:    2.8680    magn:    0.0000    constr:    0.0000
     atom:   14    charge:    0.8817    magn:   -0.0000    constr:    0.0000
     atom:   15    charge:    2.8667    magn:    0.0000    constr:    0.0000
     atom:   16    charge:    0.8811    magn:   -0.0000    constr:    0.0000
     atom:   17    charge:    2.8680    magn:    0.0000    constr:    0.0000
     atom:   18    charge:    0.8808    magn:   -0.0000    constr:    0.0000
     atom:   19    charge:    2.8690    magn:    0.0000    constr:    0.0000
     atom:   20    charge:    0.8808    magn:   -0.0000    constr:    0.0000
     atom:   21    charge:    2.8692    magn:   -0.0000    constr:    0.0000
     atom:   22    charge:    0.8811    magn:   -0.0000    constr:    0.0000
     atom:   23    charge:    2.8690    magn:    0.0000    constr:    0.0000
     atom:   24    charge:    0.8803    magn:   -0.0000    constr:    0.0000
     atom:   25    charge:    2.8691    magn:   -0.0000    constr:    0.0000
     atom:   26    charge:    0.8805    magn:   -0.0000    constr:    0.0000
     atom:   27    charge:    2.8687    magn:    0.0000    constr:    0.0000
     atom:   28    charge:    0.8803    magn:   -0.0000    constr:    0.0000
     atom:   29    charge:    2.8687    magn:    0.0000    constr:    0.0000
     atom:   30    charge:    0.8808    magn:   -0.0000    constr:    0.0000
     atom:   31    charge:    2.8691    magn:   -0.0000    constr:    0.0000
     atom:   32    charge:    0.8808    magn:    0.0000    constr:    0.0000
     atom:   33    charge:    2.8692    magn:   -0.0000    constr:    0.0000
     atom:   34    charge:    0.8808    magn:   -0.0000    constr:    0.0000
     atom:   35    charge:    2.8692    magn:   -0.0000    constr:    0.0000
     atom:   36    charge:    0.8806    magn:    0.0000    constr:    0.0000
     atom:   37    charge:    2.8691    magn:   -0.0000    constr:    0.0000
     atom:   38    charge:    0.8807    magn:    0.0000    constr:    0.0000
     atom:   39    charge:    2.8690    magn:   -0.0000    constr:    0.0000
     atom:   40    charge:    0.8807    magn:    0.0000    constr:    0.0000
     atom:   41    charge:    2.8689    magn:   -0.0000    constr:    0.0000
     atom:   42    charge:    0.8806    magn:    0.0000    constr:    0.0000
     atom:   43    charge:    2.8690    magn:   -0.0000    constr:    0.0000
     atom:   44    charge:    0.8808    magn:   -0.0000    constr:    0.0000
     atom:   45    charge:    2.8691    magn:   -0.0000    constr:    0.0000
     atom:   46    charge:    0.8808    magn:   -0.0000    constr:    0.0000
     atom:   47    charge:    2.8690    magn:    0.0000    constr:    0.0000
     atom:   48    charge:    0.8803    magn:   -0.0000    constr:    0.0000
     atom:   49    charge:    2.8680    magn:    0.0000    constr:    0.0000
     atom:   50    charge:    0.8807    magn:    0.0000    constr:    0.0000
     atom:   51    charge:    2.8687    magn:    0.0000    constr:    0.0000
     atom:   52    charge:    0.8807    magn:    0.0000    constr:    0.0000
     atom:   53    charge:    2.8689    magn:   -0.0000    constr:    0.0000
     atom:   54    charge:    0.8807    magn:    0.0000    constr:    0.0000
     atom:   55    charge:    2.8689    magn:   -0.0000    constr:    0.0000
     atom:   56    charge:    0.8803    magn:   -0.0000    constr:    0.0000
     atom:   57    charge:    2.8687    magn:    0.0000    constr:    0.0000
     atom:   58    charge:    0.8811    magn:   -0.0000    constr:    0.0000
     atom:   59    charge:    2.8680    magn:    0.0000    constr:    0.0000
     atom:   60    charge:    0.8817    magn:   -0.0000    constr:    0.0000
     atom:   61    charge:    2.8343    magn:   -0.0000    constr:    0.0000
     atom:   62    charge:    0.8805    magn:   -0.0000    constr:    0.0000
     atom:   63    charge:    2.8667    magn:    0.0000    constr:    0.0000
     atom:   64    charge:    0.8807    magn:    0.0000    constr:    0.0000
     atom:   65    charge:    2.8687    magn:    0.0000    constr:    0.0000
     atom:   66    charge:    0.8807    magn:    0.0000    constr:    0.0000
     atom:   67    charge:    2.8690    magn:   -0.0000    constr:    0.0000
     atom:   68    charge:    0.8805    magn:   -0.0000    constr:    0.0000
     atom:   69    charge:    2.8687    magn:    0.0000    constr:    0.0000
     atom:   70    charge:    0.8817    magn:   -0.0000    constr:    0.0000
     atom:   71    charge:    2.8667    magn:    0.0000    constr:    0.0000
     atom:   72    charge:    1.6088    magn:    0.0000    constr:    0.0000

     total cpu time spent up to now is      347.9 secs

     End of self-consistent calculation

 ------ SPIN UP ------------


          k = 0.0000 0.0000 0.0000 (137305 PWs)   bands (ev):

   -23.9180 -21.8914 -21.8914 -21.6032 -21.1878 -21.1878 -21.0510 -20.8969
   -20.8969 -20.7631 -20.3683 -20.3683 -20.3013 -19.9692 -19.9692 -19.9644
   -19.8317 -19.8317 -19.8185 -19.4788 -19.4788 -19.1157 -19.0042 -19.0042
   -18.9196 -18.7832 -18.7157 -18.7157 -18.6807 -18.5986 -18.5986 -18.5672
   -18.5672 -18.5370 -18.0917 -18.0917 -15.4223 -13.7300 -13.7300 -12.8767
   -12.8767 -12.6964 -12.5729 -12.4422 -12.4422 -12.2286 -12.2286 -12.1304
   -12.1029 -12.1029 -12.0664 -11.9505 -11.9505 -11.4675 -11.4412 -11.3099
   -11.3099 -11.2040 -11.1168 -11.1168 -11.0498 -10.5067 -10.5067 -10.4496
   -10.2076 -10.0125  -9.8342  -9.8342  -9.7229  -9.7226  -9.7226  -9.6811
    -9.5202  -9.5202  -9.4753  -9.4753  -9.3116  -9.3037  -9.3037  -9.2859
    -9.0467  -8.9489  -8.9489  -8.6518  -8.6518  -8.5330  -8.5330  -8.4605
    -8.4173  -8.3202  -8.3202  -8.2258  -8.2100  -8.2100  -8.1699  -7.8166
    -7.7582  -7.7537  -7.7537  -7.7220  -7.7220  -7.6716  -7.6716  -7.6638
    -7.6620  -7.6620  -7.6615  -7.4558  -7.4558  -7.3579  -7.3579  -7.3472
    -7.3026  -6.8037  -6.8037  -6.7837  -6.7051  -6.6852  -6.6852  -6.5787
    -6.5787  -6.5002  -6.3544  -6.3544  -6.2956  -5.8980  -5.8980  -5.6521
    -5.5154  -5.5154  -5.3410  -5.3361  -5.3361  -5.1320  -5.1320  -5.1315
    -5.0482  -4.9939  -4.9939  -4.9036  -4.9036  -4.8896  -4.1285  -4.1285
    -1.9299   0.3303   0.4629   0.4629   0.6295   0.7947   1.0746   1.1460
     1.1460   1.1822   1.2485   1.2485   1.4301   1.4301   1.4755   1.4755
     1.5180   1.5571   1.5691   1.6935   1.6935   1.8910   1.8910   1.9643
     2.0029   2.4670   2.6944   2.6944   2.6973

     occupation numbers 
     1.0000   1.0000   1.0000   1.0000   1.0000   1.0000   1.0000   1.0000
     1.0000   1.0000   1.0000   1.0000   1.0000   1.0000   1.0000   1.0000
     1.0000   1.0000   1.0000   1.0000   1.0000   1.0000   1.0000   1.0000
     1.0000   1.0000   1.0000   1.0000   1.0000   1.0000   1.0000   1.0000
     1.0000   1.0000   1.0000   1.0000   1.0000   1.0000   1.0000   1.0000
     1.0000   1.0000   1.0000   1.0000   1.0000   1.0000   1.0000   1.0000
     1.0000   1.0000   1.0000   1.0000   1.0000   1.0000   1.0000   1.0000
     1.0000   1.0000   1.0000   1.0000   1.0000   1.0000   1.0000   1.0000
     1.0000   1.0000   1.0000   1.0000   1.0000   1.0000   1.0000   1.0000
     1.0000   1.0000   1.0000   1.0000   1.0000   1.0000   1.0000   1.0000
     1.0000   1.0000   1.0000   1.0000   1.0000   1.0000   1.0000   1.0000
     1.0000   1.0000   1.0000   1.0000   1.0000   1.0000   1.0000   1.0000
     1.0000   1.0000   1.0000   1.0000   1.0000   1.0000   1.0000   1.0000
     1.0000   1.0000   1.0000   1.0000   1.0000   1.0000   1.0000   1.0000
     1.0000   1.0000   1.0000   1.0000   1.0000   1.0000   1.0000   1.0000
     1.0000   1.0000   1.0000   1.0000   1.0000   1.0000   1.0000   1.0000
     1.0000   1.0000   1.0000   1.0000   1.0000   1.0000   1.0000   1.0000
     1.0000   1.0000   1.0000   1.0000   1.0000   1.0000   0.9601   0.9601
     0.0000   0.0000   0.0000   0.0000   0.0000   0.0000   0.0000   0.0000
     0.0000   0.0000   0.0000   0.0000   0.0000   0.0000   0.0000   0.0000
     0.0000   0.0000   0.0000   0.0000   0.0000   0.0000   0.0000   0.0000
     0.0000   0.0000   0.0000   0.0000   0.0000

          k = 0.0000 0.3849 0.0000 (137430 PWs)   bands (ev):

   -23.9180 -21.9108 -21.8953 -21.5113 -21.3023 -21.1325 -21.1307 -20.9221
   -20.8070 -20.5972 -20.5794 -20.3958 -20.2771 -20.0902 -20.0602 -19.9734
   -19.7493 -19.6807 -19.5651 -19.4765 -19.3525 -19.2136 -19.1914 -19.0884
   -19.0600 -18.8548 -18.7960 -18.7333 -18.6276 -18.6150 -18.5966 -18.5599
   -18.3438 -18.3367 -18.1559 -18.1535 -15.4225 -13.7241 -13.7211 -12.8923
   -12.8511 -12.7557 -12.6365 -12.5764 -12.4360 -12.3079 -12.2748 -12.1731
   -12.0443 -12.0128 -11.8933 -11.8709 -11.6673 -11.6640 -11.6195 -11.4982
   -11.1679 -11.1166 -11.0030 -10.8781 -10.6386 -10.6323 -10.5136 -10.5082
   -10.4483 -10.2421 -10.1557 -10.0387 -10.0021  -9.9127  -9.9045  -9.7115
    -9.4855  -9.4352  -9.2714  -9.1789  -9.1347  -8.9914  -8.9844  -8.9766
    -8.9042  -8.9001  -8.8514  -8.7061  -8.6976  -8.6669  -8.5808  -8.4834
    -8.4803  -8.3612  -8.3534  -8.2803  -8.2777  -8.2233  -8.1613  -8.1007
    -8.0419  -7.9882  -7.9672  -7.9443  -7.9325  -7.8258  -7.7913  -7.5851
    -7.5155  -7.4991  -7.4596  -7.4538  -7.2695  -7.2201  -7.1748  -7.0467
    -7.0219  -6.9669  -6.9471  -6.8606  -6.7548  -6.7169  -6.6546  -6.4002
    -6.3455  -6.3022  -6.2587  -6.2274  -6.0984  -6.0144  -5.9792  -5.7645
    -5.7553  -5.7443  -5.6077  -5.5198  -5.5092  -5.3103  -5.1585  -5.1167
    -4.9506  -4.9417  -4.8756  -4.8671  -4.5664  -4.5664  -4.2550  -4.2480
    -1.9322   0.3465   0.4951   0.5172   0.7353   0.8280   0.8618   0.9500
     1.0150   1.0401   1.0635   1.0954   1.2863   1.5319   1.5638   1.5847
     1.6283   1.6974   1.7825   1.8010   2.0692   2.0965   2.1687   2.1912
     2.2478   2.2714   2.3188   2.4151   2.4858

     occupation numbers 
     1.0000   1.0000   1.0000   1.0000   1.0000   1.0000   1.0000   1.0000
     1.0000   1.0000   1.0000   1.0000   1.0000   1.0000   1.0000   1.0000
     1.0000   1.0000   1.0000   1.0000   1.0000   1.0000   1.0000   1.0000
     1.0000   1.0000   1.0000   1.0000   1.0000   1.0000   1.0000   1.0000
     1.0000   1.0000   1.0000   1.0000   1.0000   1.0000   1.0000   1.0000
     1.0000   1.0000   1.0000   1.0000   1.0000   1.0000   1.0000   1.0000
     1.0000   1.0000   1.0000   1.0000   1.0000   1.0000   1.0000   1.0000
     1.0000   1.0000   1.0000   1.0000   1.0000   1.0000   1.0000   1.0000
     1.0000   1.0000   1.0000   1.0000   1.0000   1.0000   1.0000   1.0000
     1.0000   1.0000   1.0000   1.0000   1.0000   1.0000   1.0000   1.0000
     1.0000   1.0000   1.0000   1.0000   1.0000   1.0000   1.0000   1.0000
     1.0000   1.0000   1.0000   1.0000   1.0000   1.0000   1.0000   1.0000
     1.0000   1.0000   1.0000   1.0000   1.0000   1.0000   1.0000   1.0000
     1.0000   1.0000   1.0000   1.0000   1.0000   1.0000   1.0000   1.0000
     1.0000   1.0000   1.0000   1.0000   1.0000   1.0000   1.0000   1.0000
     1.0000   1.0000   1.0000   1.0000   1.0000   1.0000   1.0000   1.0000
     1.0000   1.0000   1.0000   1.0000   1.0000   1.0000   1.0000   1.0000
     1.0000   1.0000   1.0000   1.0000   1.0000   1.0000   1.0054   1.0079
     0.0000   0.0000   0.0000   0.0000   0.0000   0.0000   0.0000   0.0000
     0.0000   0.0000   0.0000   0.0000   0.0000   0.0000   0.0000   0.0000
     0.0000   0.0000   0.0000   0.0000   0.0000   0.0000   0.0000   0.0000
     0.0000   0.0000   0.0000   0.0000   0.0000

          k = 0.3333 0.5774 0.0000 (137394 PWs)   bands (ev):

   -23.9180 -21.9109 -21.9061 -21.3934 -21.3562 -21.3059 -21.0216 -20.8768
   -20.8147 -20.6037 -20.5154 -20.4952 -20.3091 -20.1955 -20.0536 -19.8114
   -19.6714 -19.6062 -19.5852 -19.4776 -19.4761 -19.2098 -19.1761 -19.0840
   -18.9788 -18.9271 -18.9034 -18.8888 -18.6195 -18.6016 -18.5586 -18.3889
   -18.3158 -18.3014 -18.2021 -18.1916 -15.4232 -13.7369 -13.7078 -12.9297
   -12.8559 -12.6954 -12.5553 -12.5059 -12.3632 -12.3531 -12.3439 -12.3364
   -12.2535 -12.1841 -12.1081 -11.5673 -11.4714 -11.4634 -11.2934 -11.2358
   -11.2029 -11.0779 -11.0558 -10.9756 -10.8749 -10.7477 -10.7184 -10.7059
   -10.4740 -10.4476 -10.3138  -9.9270  -9.8935  -9.6568  -9.5715  -9.5274
    -9.5034  -9.3200  -9.2904  -9.2340  -9.2176  -9.2013  -9.1597  -9.1101
    -9.0998  -8.6779  -8.6593  -8.6503  -8.5880  -8.5857  -8.5640  -8.5127
    -8.4927  -8.4722  -8.3432  -8.3335  -8.2650  -8.1799  -8.1558  -8.1530
    -8.0631  -8.0546  -8.0100  -7.9884  -7.9470  -7.9030  -7.6622  -7.6278
    -7.6196  -7.4946  -7.4565  -7.4421  -7.3115  -7.2779  -7.2095  -7.0122
    -6.9463  -6.9149  -6.8878  -6.8094  -6.7897  -6.5396  -6.4151  -6.3882
    -6.3693  -6.3602  -6.2826  -6.1461  -6.1426  -6.0366  -5.9202  -5.8682
    -5.7599  -5.7419  -5.6804  -5.6279  -5.4340  -5.4286  -5.4090  -5.2537
    -4.9152  -4.8782  -4.7287  -4.6288  -4.5409  -4.5164  -4.3419  -4.3215
    -1.9351   0.3334   0.4755   0.4874   0.7492   0.7545   0.9115   0.9635
     1.0797   1.1128   1.1880   1.2858   1.2906   1.3246   1.3438   1.4177
     1.4245   1.5006   2.0481   2.0706   2.0784   2.0930   2.2255   2.3014
     2.3275   2.4077   2.4093   2.5397   2.6068

     occupation numbers 
     1.0000   1.0000   1.0000   1.0000   1.0000   1.0000   1.0000   1.0000
     1.0000   1.0000   1.0000   1.0000   1.0000   1.0000   1.0000   1.0000
     1.0000   1.0000   1.0000   1.0000   1.0000   1.0000   1.0000   1.0000
     1.0000   1.0000   1.0000   1.0000   1.0000   1.0000   1.0000   1.0000
     1.0000   1.0000   1.0000   1.0000   1.0000   1.0000   1.0000   1.0000
     1.0000   1.0000   1.0000   1.0000   1.0000   1.0000   1.0000   1.0000
     1.0000   1.0000   1.0000   1.0000   1.0000   1.0000   1.0000   1.0000
     1.0000   1.0000   1.0000   1.0000   1.0000   1.0000   1.0000   1.0000
     1.0000   1.0000   1.0000   1.0000   1.0000   1.0000   1.0000   1.0000
     1.0000   1.0000   1.0000   1.0000   1.0000   1.0000   1.0000   1.0000
     1.0000   1.0000   1.0000   1.0000   1.0000   1.0000   1.0000   1.0000
     1.0000   1.0000   1.0000   1.0000   1.0000   1.0000   1.0000   1.0000
     1.0000   1.0000   1.0000   1.0000   1.0000   1.0000   1.0000   1.0000
     1.0000   1.0000   1.0000   1.0000   1.0000   1.0000   1.0000   1.0000
     1.0000   1.0000   1.0000   1.0000   1.0000   1.0000   1.0000   1.0000
     1.0000   1.0000   1.0000   1.0000   1.0000   1.0000   1.0000   1.0000
     1.0000   1.0000   1.0000   1.0000   1.0000   1.0000   1.0000   1.0000
     1.0000   1.0000   1.0000   1.0000   1.0000   1.0000   1.0000   1.0000
     0.0000   0.0000   0.0000   0.0000   0.0000   0.0000   0.0000   0.0000
     0.0000   0.0000   0.0000   0.0000   0.0000   0.0000   0.0000   0.0000
     0.0000   0.0000   0.0000   0.0000   0.0000   0.0000   0.0000   0.0000
     0.0000   0.0000   0.0000   0.0000   0.0000

 ------ SPIN DOWN ----------


          k = 0.0000 0.0000 0.0000 (137305 PWs)   bands (ev):

   -23.9180 -21.8915 -21.8915 -21.6032 -21.1878 -21.1878 -21.0510 -20.8969
   -20.8969 -20.7631 -20.3683 -20.3683 -20.3013 -19.9692 -19.9692 -19.9644
   -19.8317 -19.8317 -19.8185 -19.4788 -19.4788 -19.1157 -19.0042 -19.0042
   -18.9196 -18.7832 -18.7157 -18.7157 -18.6807 -18.5986 -18.5986 -18.5672
   -18.5672 -18.5370 -18.0917 -18.0917 -15.4222 -13.7299 -13.7299 -12.8767
   -12.8767 -12.6964 -12.5729 -12.4422 -12.4422 -12.2286 -12.2286 -12.1304
   -12.1028 -12.1028 -12.0663 -11.9505 -11.9505 -11.4675 -11.4412 -11.3099
   -11.3099 -11.2040 -11.1168 -11.1168 -11.0498 -10.5067 -10.5067 -10.4495
   -10.2076 -10.0125  -9.8342  -9.8342  -9.7229  -9.7226  -9.7226  -9.6811
    -9.5201  -9.5201  -9.4752  -9.4752  -9.3116  -9.3036  -9.3036  -9.2858
    -9.0466  -8.9490  -8.9490  -8.6518  -8.6518  -8.5330  -8.5330  -8.4605
    -8.4173  -8.3202  -8.3202  -8.2258  -8.2100  -8.2100  -8.1699  -7.8166
    -7.7582  -7.7537  -7.7537  -7.7220  -7.7220  -7.6716  -7.6716  -7.6638
    -7.6621  -7.6621  -7.6614  -7.4557  -7.4557  -7.3579  -7.3579  -7.3472
    -7.3026  -6.8037  -6.8037  -6.7837  -6.7051  -6.6852  -6.6852  -6.5787
    -6.5787  -6.5002  -6.3544  -6.3544  -6.2956  -5.8980  -5.8980  -5.6521
    -5.5153  -5.5153  -5.3410  -5.3361  -5.3361  -5.1321  -5.1321  -5.1315
    -5.0482  -4.9939  -4.9939  -4.9036  -4.9036  -4.8896  -4.1285  -4.1285
    -1.9296   0.3303   0.4629   0.4629   0.6295   0.7947   1.0746   1.1460
     1.1460   1.1822   1.2485   1.2485   1.4301   1.4301   1.4755   1.4755
     1.5180   1.5571   1.5691   1.6935   1.6935   1.8910   1.8910   1.9643
     2.0029   2.4671   2.6947   2.6947   2.6974

     occupation numbers 
     1.0000   1.0000   1.0000   1.0000   1.0000   1.0000   1.0000   1.0000
     1.0000   1.0000   1.0000   1.0000   1.0000   1.0000   1.0000   1.0000
     1.0000   1.0000   1.0000   1.0000   1.0000   1.0000   1.0000   1.0000
     1.0000   1.0000   1.0000   1.0000   1.0000   1.0000   1.0000   1.0000
     1.0000   1.0000   1.0000   1.0000   1.0000   1.0000   1.0000   1.0000
     1.0000   1.0000   1.0000   1.0000   1.0000   1.0000   1.0000   1.0000
     1.0000   1.0000   1.0000   1.0000   1.0000   1.0000   1.0000   1.0000
     1.0000   1.0000   1.0000   1.0000   1.0000   1.0000   1.0000   1.0000
     1.0000   1.0000   1.0000   1.0000   1.0000   1.0000   1.0000   1.0000
     1.0000   1.0000   1.0000   1.0000   1.0000   1.0000   1.0000   1.0000
     1.0000   1.0000   1.0000   1.0000   1.0000   1.0000   1.0000   1.0000
     1.0000   1.0000   1.0000   1.0000   1.0000   1.0000   1.0000   1.0000
     1.0000   1.0000   1.0000   1.0000   1.0000   1.0000   1.0000   1.0000
     1.0000   1.0000   1.0000   1.0000   1.0000   1.0000   1.0000   1.0000
     1.0000   1.0000   1.0000   1.0000   1.0000   1.0000   1.0000   1.0000
     1.0000   1.0000   1.0000   1.0000   1.0000   1.0000   1.0000   1.0000
     1.0000   1.0000   1.0000   1.0000   1.0000   1.0000   1.0000   1.0000
     1.0000   1.0000   1.0000   1.0000   1.0000   1.0000   0.9602   0.9602
     0.0000   0.0000   0.0000   0.0000   0.0000   0.0000   0.0000   0.0000
     0.0000   0.0000   0.0000   0.0000   0.0000   0.0000   0.0000   0.0000
     0.0000   0.0000   0.0000   0.0000   0.0000   0.0000   0.0000   0.0000
     0.0000   0.0000   0.0000   0.0000   0.0000

          k = 0.0000 0.3849 0.0000 (137430 PWs)   bands (ev):

   -23.9179 -21.9109 -21.8953 -21.5113 -21.3023 -21.1325 -21.1307 -20.9221
   -20.8070 -20.5972 -20.5794 -20.3958 -20.2771 -20.0902 -20.0602 -19.9734
   -19.7493 -19.6807 -19.5651 -19.4765 -19.3525 -19.2136 -19.1914 -19.0884
   -19.0600 -18.8547 -18.7960 -18.7333 -18.6276 -18.6149 -18.5966 -18.5599
   -18.3438 -18.3367 -18.1559 -18.1534 -15.4225 -13.7241 -13.7211 -12.8923
   -12.8511 -12.7557 -12.6365 -12.5764 -12.4359 -12.3079 -12.2748 -12.1731
   -12.0443 -12.0128 -11.8933 -11.8709 -11.6673 -11.6640 -11.6195 -11.4982
   -11.1679 -11.1166 -11.0029 -10.8781 -10.6386 -10.6323 -10.5136 -10.5082
   -10.4482 -10.2421 -10.1557 -10.0387 -10.0021  -9.9127  -9.9045  -9.7115
    -9.4855  -9.4352  -9.2714  -9.1789  -9.1347  -8.9914  -8.9844  -8.9766
    -8.9042  -8.9001  -8.8514  -8.7061  -8.6976  -8.6669  -8.5808  -8.4834
    -8.4803  -8.3613  -8.3534  -8.2803  -8.2777  -8.2233  -8.1613  -8.1007
    -8.0419  -7.9882  -7.9672  -7.9443  -7.9325  -7.8258  -7.7913  -7.5850
    -7.5155  -7.4992  -7.4596  -7.4538  -7.2695  -7.2200  -7.1748  -7.0467
    -7.0219  -6.9669  -6.9471  -6.8606  -6.7548  -6.7169  -6.6546  -6.4002
    -6.3455  -6.3021  -6.2587  -6.2273  -6.0984  -6.0144  -5.9792  -5.7645
    -5.7553  -5.7443  -5.6077  -5.5198  -5.5092  -5.3103  -5.1585  -5.1167
    -4.9507  -4.9417  -4.8756  -4.8671  -4.5664  -4.5664  -4.2550  -4.2480
    -1.9319   0.3465   0.4951   0.5172   0.7352   0.8280   0.8618   0.9500
     1.0150   1.0401   1.0635   1.0954   1.2863   1.5319   1.5638   1.5847
     1.6283   1.6974   1.7825   1.8010   2.0692   2.0965   2.1687   2.1913
     2.2477   2.2714   2.3185   2.4151   2.4857

     occupation numbers 
     1.0000   1.0000   1.0000   1.0000   1.0000   1.0000   1.0000   1.0000
     1.0000   1.0000   1.0000   1.0000   1.0000   1.0000   1.0000   1.0000
     1.0000   1.0000   1.0000   1.0000   1.0000   1.0000   1.0000   1.0000
     1.0000   1.0000   1.0000   1.0000   1.0000   1.0000   1.0000   1.0000
     1.0000   1.0000   1.0000   1.0000   1.0000   1.0000   1.0000   1.0000
     1.0000   1.0000   1.0000   1.0000   1.0000   1.0000   1.0000   1.0000
     1.0000   1.0000   1.0000   1.0000   1.0000   1.0000   1.0000   1.0000
     1.0000   1.0000   1.0000   1.0000   1.0000   1.0000   1.0000   1.0000
     1.0000   1.0000   1.0000   1.0000   1.0000   1.0000   1.0000   1.0000
     1.0000   1.0000   1.0000   1.0000   1.0000   1.0000   1.0000   1.0000
     1.0000   1.0000   1.0000   1.0000   1.0000   1.0000   1.0000   1.0000
     1.0000   1.0000   1.0000   1.0000   1.0000   1.0000   1.0000   1.0000
     1.0000   1.0000   1.0000   1.0000   1.0000   1.0000   1.0000   1.0000
     1.0000   1.0000   1.0000   1.0000   1.0000   1.0000   1.0000   1.0000
     1.0000   1.0000   1.0000   1.0000   1.0000   1.0000   1.0000   1.0000
     1.0000   1.0000   1.0000   1.0000   1.0000   1.0000   1.0000   1.0000
     1.0000   1.0000   1.0000   1.0000   1.0000   1.0000   1.0000   1.0000
     1.0000   1.0000   1.0000   1.0000   1.0000   1.0000   1.0054   1.0078
     0.0000   0.0000   0.0000   0.0000   0.0000   0.0000   0.0000   0.0000
     0.0000   0.0000   0.0000   0.0000   0.0000   0.0000   0.0000   0.0000
     0.0000   0.0000   0.0000   0.0000   0.0000   0.0000   0.0000   0.0000
     0.0000   0.0000   0.0000   0.0000   0.0000

          k = 0.3333 0.5774 0.0000 (137394 PWs)   bands (ev):

   -23.9179 -21.9109 -21.9061 -21.3934 -21.3562 -21.3059 -21.0216 -20.8767
   -20.8147 -20.6037 -20.5154 -20.4952 -20.3091 -20.1955 -20.0535 -19.8114
   -19.6714 -19.6062 -19.5851 -19.4776 -19.4761 -19.2098 -19.1760 -19.0840
   -18.9788 -18.9270 -18.9034 -18.8888 -18.6194 -18.6016 -18.5586 -18.3889
   -18.3157 -18.3013 -18.2021 -18.1916 -15.4231 -13.7369 -13.7078 -12.9296
   -12.8559 -12.6954 -12.5553 -12.5059 -12.3631 -12.3531 -12.3439 -12.3363
   -12.2535 -12.1841 -12.1081 -11.5673 -11.4714 -11.4634 -11.2934 -11.2358
   -11.2029 -11.0779 -11.0558 -10.9756 -10.8749 -10.7476 -10.7183 -10.7059
   -10.4740 -10.4475 -10.3138  -9.9269  -9.8935  -9.6567  -9.5715  -9.5274
    -9.5034  -9.3200  -9.2904  -9.2340  -9.2176  -9.2013  -9.1597  -9.1101
    -9.0998  -8.6779  -8.6592  -8.6503  -8.5879  -8.5857  -8.5640  -8.5127
    -8.4927  -8.4721  -8.3432  -8.3335  -8.2650  -8.1798  -8.1558  -8.1529
    -8.0631  -8.0546  -8.0100  -7.9884  -7.9470  -7.9030  -7.6622  -7.6278
    -7.6196  -7.4946  -7.4564  -7.4421  -7.3115  -7.2779  -7.2094  -7.0122
    -6.9462  -6.9149  -6.8878  -6.8094  -6.7897  -6.5396  -6.4151  -6.3882
    -6.3693  -6.3602  -6.2826  -6.1461  -6.1426  -6.0366  -5.9202  -5.8682
    -5.7599  -5.7419  -5.6804  -5.6279  -5.4340  -5.4286  -5.4091  -5.2537
    -4.9152  -4.8782  -4.7287  -4.6288  -4.5410  -4.5164  -4.3419  -4.3215
    -1.9348   0.3334   0.4755   0.4874   0.7492   0.7545   0.9115   0.9634
     1.0797   1.1128   1.1879   1.2858   1.2906   1.3246   1.3438   1.4177
     1.4245   1.5006   2.0481   2.0706   2.0784   2.0930   2.2255   2.3014
     2.3275   2.4077   2.4093   2.5397   2.6068

     occupation numbers 
     1.0000   1.0000   1.0000   1.0000   1.0000   1.0000   1.0000   1.0000
     1.0000   1.0000   1.0000   1.0000   1.0000   1.0000   1.0000   1.0000
     1.0000   1.0000   1.0000   1.0000   1.0000   1.0000   1.0000   1.0000
     1.0000   1.0000   1.0000   1.0000   1.0000   1.0000   1.0000   1.0000
     1.0000   1.0000   1.0000   1.0000   1.0000   1.0000   1.0000   1.0000
     1.0000   1.0000   1.0000   1.0000   1.0000   1.0000   1.0000   1.0000
     1.0000   1.0000   1.0000   1.0000   1.0000   1.0000   1.0000   1.0000
     1.0000   1.0000   1.0000   1.0000   1.0000   1.0000   1.0000   1.0000
     1.0000   1.0000   1.0000   1.0000   1.0000   1.0000   1.0000   1.0000
     1.0000   1.0000   1.0000   1.0000   1.0000   1.0000   1.0000   1.0000
     1.0000   1.0000   1.0000   1.0000   1.0000   1.0000   1.0000   1.0000
     1.0000   1.0000   1.0000   1.0000   1.0000   1.0000   1.0000   1.0000
     1.0000   1.0000   1.0000   1.0000   1.0000   1.0000   1.0000   1.0000
     1.0000   1.0000   1.0000   1.0000   1.0000   1.0000   1.0000   1.0000
     1.0000   1.0000   1.0000   1.0000   1.0000   1.0000   1.0000   1.0000
     1.0000   1.0000   1.0000   1.0000   1.0000   1.0000   1.0000   1.0000
     1.0000   1.0000   1.0000   1.0000   1.0000   1.0000   1.0000   1.0000
     1.0000   1.0000   1.0000   1.0000   1.0000   1.0000   1.0000   1.0000
     0.0000   0.0000   0.0000   0.0000   0.0000   0.0000   0.0000   0.0000
     0.0000   0.0000   0.0000   0.0000   0.0000   0.0000   0.0000   0.0000
     0.0000   0.0000   0.0000   0.0000   0.0000   0.0000   0.0000   0.0000
     0.0000   0.0000   0.0000   0.0000   0.0000

     the Fermi energy is    -4.0723 ev

!    total energy              =   -1152.77669980 Ry
     Harris-Foulkes estimate   =   -1152.77669980 Ry
     estimated scf accuracy    <          6.5E-10 Ry

     The total energy is the sum of the following terms:

     one-electron contribution =   -5632.95157241 Ry
     hartree contribution      =    2872.79149414 Ry
     xc contribution           =    -303.33265619 Ry
     ewald contribution        =    2102.12156276 Ry
     one-center paw contrib.   =    -191.40588618 Ry
      -> PAW hartree energy AE =       0.00000000 Ry
      -> PAW hartree energy PS =       0.00000000 Ry
      -> PAW xc energy AE      =       0.00000000 Ry
      -> PAW xc energy PS      =       0.00000000 Ry
      -> total E_H with PAW    =    2872.79149414 Ry
      -> total E_XC with PAW   =    -303.33265619 Ry
     smearing contrib. (-TS)   =       0.00035808 Ry

     total magnetization       =    -0.00 Bohr mag/cell
     absolute magnetization    =     0.00 Bohr mag/cell

     convergence has been achieved in  17 iterations

     negative rho (up, down):  9.725E-04 9.725E-04

     Forces acting on atoms (cartesian axes, Ry/au):

     atom    1 type  3   force =    -0.13777118    0.07954223   -0.00001962
     atom    2 type  1   force =    -0.05774761    0.02997746    0.00002043
     atom    3 type  3   force =    -0.00000000   -0.15908445   -0.00001962
     atom    4 type  1   force =    -0.01517910    0.01133242    0.00002056
     atom    5 type  3   force =     0.01665525   -0.03220653   -0.00001973
     atom    6 type  1   force =    -0.00333797   -0.00192718    0.00002096
     atom    7 type  3   force =     0.00343583   -0.00779591   -0.00001974
     atom    8 type  1   force =     0.00222461   -0.01881170    0.00002056
     atom    9 type  3   force =    -0.00503354    0.00687347   -0.00001974
     atom   10 type  1   force =    -0.00291256   -0.06499963    0.00002043
     atom   11 type  3   force =    -0.01956405    0.03052714   -0.00001973
     atom   12 type  1   force =     0.05483505    0.03502216    0.00002043
     atom   13 type  3   force =    -0.03621930    0.00167940   -0.00001973
     atom   14 type  1   force =     0.05774761    0.02997746    0.00002043
     atom   15 type  3   force =    -0.03511047   -0.02027104   -0.00001973
     atom   16 type  1   force =    -0.00000000    0.02165208    0.00002104
     atom   17 type  3   force =    -0.01665525   -0.03220653   -0.00001973
     atom   18 type  1   force =    -0.00239735    0.00503179    0.00002076
     atom   19 type  3   force =     0.00000000   -0.01346917   -0.00001974
     atom   20 type  1   force =     0.00315898   -0.00459206    0.00002076
     atom   21 type  3   force =    -0.00189283   -0.00109282   -0.00001973
     atom   22 type  1   force =     0.01875125   -0.01082604    0.00002104
     atom   23 type  3   force =    -0.01166464    0.00673458   -0.00001974
     atom   24 type  1   force =     0.01740372    0.00747928    0.00002056
     atom   25 type  3   force =    -0.00846937    0.00092243   -0.00001974
     atom   26 type  1   force =     0.02530545    0.01461011    0.00002037
     atom   27 type  3   force =    -0.01483813   -0.00482066   -0.00001974
     atom   28 type  1   force =     0.01517910    0.01133242    0.00002056
     atom   29 type  3   force =    -0.01159388   -0.01043987   -0.00001974
     atom   30 type  1   force =     0.00239735    0.00503179    0.00002076
     atom   31 type  3   force =    -0.00343583   -0.00779591   -0.00001974
     atom   32 type  1   force =     0.00000000    0.00000000    0.00002056
     atom   33 type  3   force =     0.00189283   -0.00109282   -0.00001973
     atom   34 type  1   force =     0.00555633   -0.00043973    0.00002076
     atom   35 type  3   force =     0.00000000    0.00218565   -0.00001973
     atom   36 type  1   force =    -0.00000000    0.00385436    0.00002096
     atom   37 type  3   force =     0.00846937    0.00092243   -0.00001974
     atom   38 type  1   force =     0.00731637    0.00546405    0.00002058
     atom   39 type  3   force =     0.00000000   -0.00172503   -0.00001975
     atom   40 type  1   force =     0.00839020    0.00360414    0.00002058
     atom   41 type  3   force =    -0.00392351   -0.00226524   -0.00001975
     atom   42 type  1   force =     0.00333797   -0.00192718    0.00002096
     atom   43 type  3   force =    -0.00149392    0.00086252   -0.00001975
     atom   44 type  1   force =    -0.00315898   -0.00459206    0.00002076
     atom   45 type  3   force =     0.00503354    0.00687347   -0.00001974
     atom   46 type  1   force =    -0.00555633   -0.00043973    0.00002076
     atom   47 type  3   force =     0.01166464    0.00673458   -0.00001974
     atom   48 type  1   force =    -0.01740372    0.00747928    0.00002056
     atom   49 type  3   force =     0.03621930    0.00167940   -0.00001973
     atom   50 type  1   force =    -0.00731637    0.00546405    0.00002058
     atom   51 type  3   force =     0.01483813   -0.00482066   -0.00001974
     atom   52 type  1   force =     0.00000000    0.00000000    0.00002085
     atom   53 type  3   force =     0.00392351   -0.00226524   -0.00001975
     atom   54 type  1   force =     0.00107382   -0.00906819    0.00002058
     atom   55 type  3   force =    -0.00000000    0.00453047   -0.00001975
     atom   56 type  1   force =    -0.00222461   -0.01881170    0.00002056
     atom   57 type  3   force =     0.00324425    0.01526053   -0.00001974
     atom   58 type  1   force =    -0.01875125   -0.01082604    0.00002104
     atom   59 type  3   force =     0.01956405    0.03052714   -0.00001973
     atom   60 type  1   force =    -0.05483505    0.03502216    0.00002043
     atom   61 type  3   force =     0.13777118    0.07954223   -0.00001962
     atom   62 type  1   force =    -0.02530545    0.01461011    0.00002037
     atom   63 type  3   force =     0.03511047   -0.02027104   -0.00001973
     atom   64 type  1   force =    -0.00839020    0.00360414    0.00002058
     atom   65 type  3   force =     0.01159388   -0.01043987   -0.00001974
     atom   66 type  1   force =    -0.00107382   -0.00906819    0.00002058
     atom   67 type  3   force =     0.00149392    0.00086252   -0.00001975
     atom   68 type  1   force =    -0.00000000   -0.02922021    0.00002037
     atom   69 type  3   force =    -0.00324425    0.01526053   -0.00001974
     atom   70 type  1   force =     0.00291256   -0.06499963    0.00002043
     atom   71 type  3   force =     0.00000000    0.04054208   -0.00001973
     atom   72 type  2   force =     0.00000000    0.00000000   -0.00001222
     The non-local contrib.  to forces
     atom    1 type  3   force =    -0.67668602    0.39068485   -0.00000104
     atom    2 type  1   force =     0.06006053   -0.04932756    0.00000614
     atom    3 type  3   force =     0.00000000   -0.78136971   -0.00000104
     atom    4 type  1   force =     0.01862769   -0.01581403    0.00000641
     atom    5 type  3   force =     0.04295390   -0.12148757   -0.00000148
     atom    6 type  1   force =     0.00374788    0.00216384    0.00000646
     atom    7 type  3   force =     0.00794930   -0.02814424   -0.00000150
     atom    8 type  1   force =    -0.00438151    0.02403906    0.00000641
     atom    9 type  3   force =    -0.02039898    0.02095642   -0.00000150
     atom   10 type  1   force =    -0.01268865    0.07667772    0.00000614
     atom   11 type  3   force =    -0.08373437    0.09794295   -0.00000148
     atom   12 type  1   force =    -0.07274918   -0.02735016    0.00000614
     atom   13 type  3   force =    -0.12668827    0.02354462   -0.00000148
     atom   14 type  1   force =    -0.06006053   -0.04932756    0.00000614
     atom   15 type  3   force =    -0.11506067   -0.06643031   -0.00000137
     atom   16 type  1   force =    -0.00000000   -0.01870460    0.00000643
     atom   17 type  3   force =    -0.04295390   -0.12148757   -0.00000148
     atom   18 type  1   force =     0.00229681   -0.00477230    0.00000644
     atom   19 type  3   force =     0.00000000   -0.04299461   -0.00000150
     atom   20 type  1   force =    -0.00298453    0.00437524    0.00000644
     atom   21 type  3   force =    -0.00669725   -0.00386666   -0.00000145
     atom   22 type  1   force =    -0.01619866    0.00935230    0.00000643
     atom   23 type  3   force =    -0.03723442    0.02149730   -0.00000150
     atom   24 type  1   force =    -0.02300919   -0.00822504    0.00000641
     atom   25 type  3   force =    -0.02834828    0.00718782   -0.00000150
     atom   26 type  1   force =    -0.02908842   -0.01679421    0.00000637
     atom   27 type  3   force =    -0.04510616   -0.01184834   -0.00000154
     atom   28 type  1   force =    -0.01862769   -0.01581403    0.00000641
     atom   29 type  3   force =    -0.03281404   -0.03313891   -0.00000154
     atom   30 type  1   force =    -0.00229681   -0.00477230    0.00000644
     atom   31 type  3   force =    -0.00794930   -0.02814424   -0.00000150
     atom   32 type  1   force =     0.00000000    0.00000000    0.00000643
     atom   33 type  3   force =     0.00669725   -0.00386666   -0.00000145
     atom   34 type  1   force =    -0.00528134    0.00039706    0.00000644
     atom   35 type  3   force =    -0.00000000    0.00773332   -0.00000145
     atom   36 type  1   force =    -0.00000000   -0.00432768    0.00000646
     atom   37 type  3   force =     0.02834828    0.00718782   -0.00000150
     atom   38 type  1   force =    -0.00800502   -0.00580889    0.00000644
     atom   39 type  3   force =     0.00000000   -0.00307577   -0.00000149
     atom   40 type  1   force =    -0.00903316   -0.00402810    0.00000644
     atom   41 type  3   force =    -0.01086921   -0.00627534   -0.00000159
     atom   42 type  1   force =    -0.00374788    0.00216384    0.00000646
     atom   43 type  3   force =    -0.00266369    0.00153788   -0.00000149
     atom   44 type  1   force =     0.00298453    0.00437524    0.00000644
     atom   45 type  3   force =     0.02039898    0.02095642   -0.00000150
     atom   46 type  1   force =     0.00528134    0.00039706    0.00000644
     atom   47 type  3   force =     0.03723442    0.02149730   -0.00000150
     atom   48 type  1   force =     0.02300919   -0.00822504    0.00000641
     atom   49 type  3   force =     0.12668827    0.02354462   -0.00000148
     atom   50 type  1   force =     0.00800502   -0.00580889    0.00000644
     atom   51 type  3   force =     0.04510616   -0.01184834   -0.00000154
     atom   52 type  1   force =     0.00000000    0.00000000    0.00000645
     atom   53 type  3   force =     0.01086921   -0.00627534   -0.00000159
     atom   54 type  1   force =    -0.00102814    0.00983699    0.00000644
     atom   55 type  3   force =    -0.00000000    0.01255068   -0.00000159
     atom   56 type  1   force =     0.00438151    0.02403906    0.00000641
     atom   57 type  3   force =     0.01229212    0.04498725   -0.00000154
     atom   58 type  1   force =     0.01619866    0.00935230    0.00000643
     atom   59 type  3   force =     0.08373437    0.09794295   -0.00000148
     atom   60 type  1   force =     0.07274918   -0.02735016    0.00000614
     atom   61 type  3   force =     0.67668602    0.39068485   -0.00000104
     atom   62 type  1   force =     0.02908842   -0.01679421    0.00000637
     atom   63 type  3   force =     0.11506067   -0.06643031   -0.00000137
     atom   64 type  1   force =     0.00903316   -0.00402810    0.00000644
     atom   65 type  3   force =     0.03281404   -0.03313891   -0.00000154
     atom   66 type  1   force =     0.00102814    0.00983699    0.00000644
     atom   67 type  3   force =     0.00266369    0.00153788   -0.00000149
     atom   68 type  1   force =    -0.00000000    0.03358842    0.00000637
     atom   69 type  3   force =    -0.01229212    0.04498725   -0.00000154
     atom   70 type  1   force =     0.01268865    0.07667772    0.00000614
     atom   71 type  3   force =     0.00000000    0.13286062   -0.00000137
     atom   72 type  2   force =     0.00000000   -0.00000000    0.00000083
     The ionic contribution  to forces
     atom    1 type  3   force =     1.14994726   -0.66392236    0.00000000
     atom    2 type  1   force =    -0.13005136    0.22525557    0.00000000
     atom    3 type  3   force =    -0.00000000    1.32784472   -0.00000000
     atom    4 type  1   force =    -0.02580527    0.04469604    0.00000000
     atom    5 type  3   force =    -0.05636181    0.16331891    0.00000000
     atom    6 type  1   force =     0.00000000    0.00000000    0.00000000
     atom    7 type  3   force =    -0.01239887    0.03324678    0.00000000
     atom    8 type  1   force =     0.02580527   -0.04469603    0.00000000
     atom    9 type  3   force =     0.02259312   -0.02736112    0.00000000
     atom   10 type  1   force =     0.13005136   -0.22525557    0.00000000
     atom   11 type  3   force =     0.11325742   -0.13047022    0.00000000
     atom   12 type  1   force =     0.26010273    0.00000000    0.00000000
     atom   13 type  3   force =     0.16961923   -0.03284869    0.00000000
     atom   14 type  1   force =     0.13005136    0.22525557    0.00000000
     atom   15 type  3   force =     0.27760637    0.16027611    0.00000000
     atom   16 type  1   force =     0.00000000    0.07691860    0.00000000
     atom   17 type  3   force =     0.05636181    0.16331891    0.00000000
     atom   18 type  1   force =    -0.00148061    0.01825227    0.00000000
     atom   19 type  3   force =    -0.00000000    0.05620470    0.00000000
     atom   20 type  1   force =     0.01506662   -0.01040838    0.00000000
     atom   21 type  3   force =     0.00740314    0.00427420    0.00000000
     atom   22 type  1   force =     0.06661346   -0.03845930   -0.00000000
     atom   23 type  3   force =     0.04867470   -0.02810235    0.00000000
     atom   24 type  1   force =     0.05161054    0.00000000    0.00000000
     atom   25 type  3   force =     0.03499199   -0.00588565    0.00000000
     atom   26 type  1   force =     0.06661346    0.03845930   -0.00000000
     atom   27 type  3   force =     0.07394131    0.02245173    0.00000000
     atom   28 type  1   force =     0.02580527    0.04469604    0.00000000
     atom   29 type  3   force =     0.05641442    0.05280919    0.00000000
     atom   30 type  1   force =     0.00148062    0.01825227    0.00000000
     atom   31 type  3   force =     0.01239887    0.03324678    0.00000000
     atom   32 type  1   force =     0.00000000    0.00000000    0.00000000
     atom   33 type  3   force =    -0.00740314    0.00427420    0.00000000
     atom   34 type  1   force =     0.01654724   -0.00784388   -0.00000000
     atom   35 type  3   force =    -0.00000000   -0.00854840    0.00000000
     atom   36 type  1   force =     0.00000000    0.00000000    0.00000000
     atom   37 type  3   force =    -0.03499199   -0.00588565    0.00000000
     atom   38 type  1   force =     0.01654724    0.00784388    0.00000000
     atom   39 type  3   force =     0.00000000    0.00742900    0.00000000
     atom   40 type  1   force =     0.01506662    0.01040838    0.00000000
     atom   41 type  3   force =     0.01725551    0.00996247    0.00000000
     atom   42 type  1   force =    -0.00000000    0.00000000    0.00000000
     atom   43 type  3   force =     0.00643371   -0.00371450    0.00000000
     atom   44 type  1   force =    -0.01506662   -0.01040838    0.00000000
     atom   45 type  3   force =    -0.02259312   -0.02736112    0.00000000
     atom   46 type  1   force =    -0.01654724   -0.00784388    0.00000000
     atom   47 type  3   force =    -0.04867470   -0.02810235    0.00000000
     atom   48 type  1   force =    -0.05161054    0.00000000    0.00000000
     atom   49 type  3   force =    -0.16961923   -0.03284869    0.00000000
     atom   50 type  1   force =    -0.01654724    0.00784388    0.00000000
     atom   51 type  3   force =    -0.07394131    0.02245173    0.00000000
     atom   52 type  1   force =     0.00000000   -0.00000000    0.00000000
     atom   53 type  3   force =    -0.01725551    0.00996247    0.00000000
     atom   54 type  1   force =    -0.00148062   -0.01825227    0.00000000
     atom   55 type  3   force =     0.00000000   -0.01992495    0.00000000
     atom   56 type  1   force =    -0.02580527   -0.04469603    0.00000000
     atom   57 type  3   force =    -0.01752689   -0.07526092    0.00000000
     atom   58 type  1   force =    -0.06661346   -0.03845930    0.00000000
     atom   59 type  3   force =    -0.11325742   -0.13047022    0.00000000
     atom   60 type  1   force =    -0.26010273    0.00000000    0.00000000
     atom   61 type  3   force =    -1.14994726   -0.66392236    0.00000000
     atom   62 type  1   force =    -0.06661346    0.03845930    0.00000000
     atom   63 type  3   force =    -0.27760637    0.16027611    0.00000000
     atom   64 type  1   force =    -0.01506662    0.01040838    0.00000000
     atom   65 type  3   force =    -0.05641443    0.05280919    0.00000000
     atom   66 type  1   force =     0.00148062   -0.01825227    0.00000000
     atom   67 type  3   force =    -0.00643371   -0.00371450    0.00000000
     atom   68 type  1   force =     0.00000000   -0.07691860    0.00000000
     atom   69 type  3   force =     0.01752689   -0.07526092    0.00000000
     atom   70 type  1   force =    -0.13005136   -0.22525557    0.00000000
     atom   71 type  3   force =    -0.00000000   -0.32055223    0.00000000
     atom   72 type  2   force =     0.00000000    0.00000000    0.00000000
     The local contribution  to forces
     atom    1 type  3   force =    -0.61754952    0.35654238    0.00000082
     atom    2 type  1   force =     0.01464197   -0.14765628   -0.00000669
     atom    3 type  3   force =    -0.00000000   -0.71308476    0.00000082
     atom    4 type  1   force =    -0.00722073   -0.01813919   -0.00000678
     atom    5 type  3   force =     0.03040560   -0.07509716    0.00000106
     atom    6 type  1   force =    -0.00691213   -0.00399072   -0.00000680
     atom    7 type  3   force =     0.00794605   -0.01314245    0.00000107
     atom    8 type  1   force =    -0.01931936    0.00281626   -0.00000678
[...]
     atom   11 type  3   force =     0.00000000    0.00000000    0.00000000
     atom   12 type  1   force =     0.00000000    0.00000000    0.00000000
     atom   13 type  3   force =     0.00000000    0.00000000    0.00000000
     atom   14 type  1   force =     0.00000000    0.00000000    0.00000000
     atom   15 type  3   force =     0.00000000    0.00000000    0.00000000
     atom   16 type  1   force =     0.00000000    0.00000000    0.00000000
     atom   17 type  3   force =     0.00000000    0.00000000    0.00000000
     atom   18 type  1   force =     0.00000000    0.00000000    0.00000000
     atom   19 type  3   force =     0.00000000    0.00000000    0.00000000
     atom   20 type  1   force =     0.00000000    0.00000000    0.00000000
     atom   21 type  3   force =     0.00000000    0.00000000    0.00000000
     atom   22 type  1   force =     0.00000000    0.00000000    0.00000000
     atom   23 type  3   force =     0.00000000    0.00000000    0.00000000
     atom   24 type  1   force =     0.00000000    0.00000000    0.00000000
     atom   25 type  3   force =     0.00000000    0.00000000    0.00000000
     atom   26 type  1   force =     0.00000000    0.00000000    0.00000000
     atom   27 type  3   force =     0.00000000    0.00000000    0.00000000
     atom   28 type  1   force =     0.00000000    0.00000000    0.00000000
     atom   29 type  3   force =     0.00000000    0.00000000    0.00000000
     atom   30 type  1   force =     0.00000000    0.00000000    0.00000000
     atom   31 type  3   force =     0.00000000    0.00000000    0.00000000
     atom   32 type  1   force =     0.00000000    0.00000000    0.00000000
     atom   33 type  3   force =     0.00000000    0.00000000    0.00000000
     atom   34 type  1   force =     0.00000000    0.00000000    0.00000000
     atom   35 type  3   force =     0.00000000    0.00000000    0.00000000
     atom   36 type  1   force =     0.00000000    0.00000000    0.00000000
     atom   37 type  3   force =     0.00000000    0.00000000    0.00000000
     atom   38 type  1   force =     0.00000000    0.00000000    0.00000000
     atom   39 type  3   force =     0.00000000    0.00000000    0.00000000
     atom   40 type  1   force =     0.00000000    0.00000000    0.00000000
     atom   41 type  3   force =     0.00000000    0.00000000    0.00000000
     atom   42 type  1   force =     0.00000000    0.00000000    0.00000000
     atom   43 type  3   force =     0.00000000    0.00000000    0.00000000
     atom   44 type  1   force =     0.00000000    0.00000000    0.00000000
     atom   45 type  3   force =     0.00000000    0.00000000    0.00000000
     atom   46 type  1   force =     0.00000000    0.00000000    0.00000000
     atom   47 type  3   force =     0.00000000    0.00000000    0.00000000
     atom   48 type  1   force =     0.00000000    0.00000000    0.00000000
     atom   49 type  3   force =     0.00000000    0.00000000    0.00000000
     atom   50 type  1   force =     0.00000000    0.00000000    0.00000000
     atom   51 type  3   force =     0.00000000    0.00000000    0.00000000
     atom   52 type  1   force =     0.00000000    0.00000000    0.00000000
     atom   53 type  3   force =     0.00000000    0.00000000    0.00000000
     atom   54 type  1   force =     0.00000000    0.00000000    0.00000000
     atom   55 type  3   force =     0.00000000    0.00000000    0.00000000
     atom   56 type  1   force =     0.00000000    0.00000000    0.00000000
     atom   57 type  3   force =     0.00000000    0.00000000    0.00000000
     atom   58 type  1   force =     0.00000000    0.00000000    0.00000000
     atom   59 type  3   force =     0.00000000    0.00000000    0.00000000
     atom   60 type  1   force =     0.00000000    0.00000000    0.00000000
     atom   61 type  3   force =     0.00000000    0.00000000    0.00000000
     atom   62 type  1   force =     0.00000000    0.00000000    0.00000000
     atom   63 type  3   force =     0.00000000    0.00000000    0.00000000
     atom   64 type  1   force =     0.00000000    0.00000000    0.00000000
     atom   65 type  3   force =     0.00000000    0.00000000    0.00000000
     atom   66 type  1   force =     0.00000000    0.00000000    0.00000000
     atom   67 type  3   force =     0.00000000    0.00000000    0.00000000
     atom   68 type  1   force =     0.00000000    0.00000000    0.00000000
     atom   69 type  3   force =     0.00000000    0.00000000    0.00000000
     atom   70 type  1   force =     0.00000000    0.00000000    0.00000000
     atom   71 type  3   force =     0.00000000    0.00000000    0.00000000
     atom   72 type  2   force =     0.00000000    0.00000000    0.00000000
     The SCF correction term to forces
     atom    1 type  3   force =    -0.00000029    0.00000017   -0.00000000
     atom    2 type  1   force =    -0.00000018    0.00000003   -0.00000000
     atom    3 type  3   force =     0.00000000   -0.00000034   -0.00000000
     atom    4 type  1   force =    -0.00000003   -0.00000000   -0.00000000
     atom    5 type  3   force =    -0.00000018    0.00000001    0.00000000
     atom    6 type  1   force =    -0.00000001   -0.00000000    0.00000000
     atom    7 type  3   force =    -0.00000002   -0.00000006   -0.00000000
     atom    8 type  1   force =    -0.00000002   -0.00000003   -0.00000000
     atom    9 type  3   force =    -0.00000006    0.00000001   -0.00000000
     atom   10 type  1   force =    -0.00000006   -0.00000017   -0.00000000
     atom   11 type  3   force =    -0.00000008   -0.00000016    0.00000000
     atom   12 type  1   force =     0.00000012    0.00000014   -0.00000000
     atom   13 type  3   force =     0.00000010    0.00000015    0.00000000
     atom   14 type  1   force =     0.00000018    0.00000003   -0.00000000
     atom   15 type  3   force =     0.00000004    0.00000002    0.00000000
     atom   16 type  1   force =    -0.00000000    0.00000008    0.00000000
     atom   17 type  3   force =     0.00000018    0.00000001    0.00000000
     atom   18 type  1   force =     0.00000000   -0.00000001   -0.00000000
     atom   19 type  3   force =     0.00000000   -0.00000000   -0.00000000
     atom   20 type  1   force =    -0.00000001    0.00000001   -0.00000000
     atom   21 type  3   force =     0.00000001    0.00000000    0.00000000
     atom   22 type  1   force =     0.00000007   -0.00000004    0.00000000
     atom   23 type  3   force =    -0.00000000    0.00000000   -0.00000000
     atom   24 type  1   force =     0.00000001    0.00000003   -0.00000000
     atom   25 type  3   force =    -0.00000004    0.00000005   -0.00000000
     atom   26 type  1   force =     0.00000003    0.00000002   -0.00000000
     atom   27 type  3   force =    -0.00000012    0.00000006   -0.00000000
     atom   28 type  1   force =     0.00000003   -0.00000000   -0.00000000
     atom   29 type  3   force =    -0.00000001   -0.00000014   -0.00000000
     atom   30 type  1   force =    -0.00000000   -0.00000001   -0.00000000
     atom   31 type  3   force =     0.00000002   -0.00000006   -0.00000000
     atom   32 type  1   force =    -0.00000000   -0.00000000   -0.00000000
     atom   33 type  3   force =    -0.00000001    0.00000000    0.00000000
     atom   34 type  1   force =    -0.00000001    0.00000000   -0.00000000
     atom   35 type  3   force =    -0.00000000   -0.00000001    0.00000000
     atom   36 type  1   force =    -0.00000000    0.00000001    0.00000000
     atom   37 type  3   force =     0.00000004    0.00000005   -0.00000000
     atom   38 type  1   force =    -0.00000003   -0.00000001   -0.00000000
     atom   39 type  3   force =    -0.00000000   -0.00000005   -0.00000000
     atom   40 type  1   force =    -0.00000002   -0.00000002   -0.00000000
     atom   41 type  3   force =    -0.00000001   -0.00000001   -0.00000000
     atom   42 type  1   force =     0.00000001   -0.00000000    0.00000000
     atom   43 type  3   force =    -0.00000004    0.00000002   -0.00000000
     atom   44 type  1   force =     0.00000001    0.00000001   -0.00000000
     atom   45 type  3   force =     0.00000006    0.00000001   -0.00000000
     atom   46 type  1   force =     0.00000001    0.00000000   -0.00000000
     atom   47 type  3   force =     0.00000000    0.00000000   -0.00000000
     atom   48 type  1   force =    -0.00000001    0.00000003   -0.00000000
     atom   49 type  3   force =    -0.00000010    0.00000015    0.00000000
     atom   50 type  1   force =     0.00000003   -0.00000001   -0.00000000
     atom   51 type  3   force =     0.00000012    0.00000006   -0.00000000
     atom   52 type  1   force =     0.00000000    0.00000000   -0.00000000
     atom   53 type  3   force =     0.00000001   -0.00000001   -0.00000000
     atom   54 type  1   force =     0.00000001    0.00000003   -0.00000000
     atom   55 type  3   force =     0.00000000    0.00000001   -0.00000000
     atom   56 type  1   force =     0.00000002   -0.00000003   -0.00000000
     atom   57 type  3   force =     0.00000011    0.00000008   -0.00000000
     atom   58 type  1   force =    -0.00000007   -0.00000004    0.00000000
     atom   59 type  3   force =     0.00000008   -0.00000016    0.00000000
     atom   60 type  1   force =    -0.00000012    0.00000014   -0.00000000
     atom   61 type  3   force =     0.00000029    0.00000017   -0.00000000
     atom   62 type  1   force =    -0.00000003    0.00000002   -0.00000000
     atom   63 type  3   force =    -0.00000004    0.00000002    0.00000000
     atom   64 type  1   force =     0.00000002   -0.00000002   -0.00000000
     atom   65 type  3   force =     0.00000001   -0.00000014   -0.00000000
     atom   66 type  1   force =    -0.00000001    0.00000003   -0.00000000
     atom   67 type  3   force =     0.00000004    0.00000002   -0.00000000
     atom   68 type  1   force =     0.00000000   -0.00000003   -0.00000000
     atom   69 type  3   force =    -0.00000011    0.00000008   -0.00000000
     atom   70 type  1   force =     0.00000006   -0.00000017   -0.00000000
     atom   71 type  3   force =    -0.00000000   -0.00000004    0.00000000
     atom   72 type  2   force =    -0.00000000   -0.00000000   -0.00000000

     Total force =     0.003003     Total SCF correction =     0.000001


     Computing stress (Cartesian axis) and pressure


     negative rho (up, down):  9.775E-04 9.775E-04
          total   stress  (Ry/bohr**3)                   (kbar)     P=   -4.77
  -0.00004110   0.00000000   0.00000000         -6.05      0.00      0.00
   0.00000000  -0.00004110  -0.00000000          0.00     -6.05     -0.00
   0.00000000  -0.00000000  -0.00001513          0.00     -0.00     -2.23

     kinetic stress (kbar)   2678.20     -0.00      0.00
                               -0.00   2678.20     -0.00
                                0.00     -0.00   3008.72

     local   stress (kbar) -44426.74     -0.00     -0.00
                               -0.00 -44426.74     -0.00
                               -0.00     -0.00  43055.67

     nonloc. stress (kbar)    919.12     -0.00      0.00
                               -0.00    919.12     -0.00
                                0.00     -0.00    857.19

     hartree stress (kbar)  20633.14      0.00     -0.00
                                0.00  20633.14     -0.00
                               -0.00     -0.00 -20070.65

     exc-cor stress (kbar)   -368.44      0.00      0.00
                                0.00   -368.44     -0.00
                                0.00     -0.00   -394.41

     corecor stress (kbar)   -287.18     -0.00      0.00
                               -0.00   -287.18      0.00
                                0.00      0.00   -278.17

     ewald   stress (kbar)  20845.85      0.00      0.00
                                0.00  20845.85      0.00
                                0.00      0.00 -26180.57

     hubbard stress (kbar)      0.00      0.00      0.00
                                0.00      0.00      0.00
                                0.00      0.00      0.00

     london  stress (kbar)      0.00      0.00      0.00
                                0.00      0.00      0.00
                                0.00      0.00      0.00

     XDM     stress (kbar)      0.00      0.00      0.00
                                0.00      0.00      0.00
                                0.00      0.00      0.00

     dft-nl  stress (kbar)      0.00      0.00      0.00
                                0.00      0.00      0.00
                                0.00      0.00      0.00

     TS-vdW  stress (kbar)      0.00      0.00      0.00
                                0.00      0.00      0.00
                                0.00      0.00      0.00



     bfgs converged in   8 scf cycles and   7 bfgs steps
     (criteria: energy <  1.0E-04 Ry, force <  1.0E-03 Ry/Bohr)

     End of BFGS Geometry Optimization

     Final energy   =   -1152.8211409794 Ry
Begin final coordinates

ATOMIC_POSITIONS (angstrom)
N        1.190893717   0.761182325   9.999957188
B       -1.269533131   3.609668885  10.000015307
N        0.000000000   2.823870750   9.999957188
B       -2.509145502   5.789688387  10.000021783
N       -1.246851636   5.046347154   9.999985285
B       -3.764796603   7.967609603  10.000020862
N       -2.507814928   7.237071899   9.999984260
B       -5.023106153  10.143995962  10.000021783
N       -3.768969976   9.421456518   9.999984260
B       -6.291252237  12.307541518  10.000015307
N       -5.035711611  11.608845135   9.999985285
B        2.506181429   1.467731200  10.000015307
N        3.739040560   0.729749315   9.999985285
B        1.269533131   3.609668885  10.000015307
N        2.509168726   2.897414373   9.999983871
B        0.000000000   5.790024389  10.000020780
N        1.246851636   5.046347154   9.999985285
B       -1.255050108   7.966243281  10.000020331
N        0.000000000   7.234047400   9.999983859
B       -2.511106625  10.141796985  10.000020331
N       -1.256396895   9.415834849   9.999983818
B       -3.768242415  12.316811708  10.000020780
N       -2.517681804  11.594800203   9.999983859
B        5.013939885   1.451257253  10.000021783
N        6.266745488   0.726413187   9.999984260
B        3.777131222   3.629472861  10.000021761
N        5.016953774   2.897281150   9.999984249
B        2.509145502   5.789688387  10.000021783
N        3.762945876   5.069286543   9.999984249
B        1.255050108   7.966243281  10.000020331
N        2.507814928   7.237071899   9.999984260
B        0.000000000  10.141215935  10.000019987
N        1.256396896   9.415834849   9.999983818
B       -1.256056516  12.315607539  10.000020331
N        0.000000000  11.591978107   9.999983818
B        7.527900536   1.449722397  10.000020862
N        8.789055584   0.726413187   9.999984260
B        6.276356555   3.623617741  10.000020285
N        7.527900536   2.897363976   9.999984101
B        5.021673206   5.796793049  10.000020285
N        6.272984950   5.070454683   9.999983878
B        3.764796604   7.967609603  10.000020862
N        5.018490986   7.243788813   9.999984101
B        2.511106625  10.141796985  10.000020331
N        3.768969976   9.421456518   9.999984260
B        1.256056517  12.315607539  10.000020331
N        2.517681805  11.594800203   9.999983859
B       10.041861186   1.451257253  10.000021783
N       11.316760512   0.729749315   9.999985285
B        8.779444517   3.623617741  10.000020285
N       10.038847298   2.897281150   9.999984249
B        7.527900536   5.794980534  10.000020406
N        8.782816122   5.070454683   9.999983878
B        6.273217187   7.964530812  10.000020285
N        7.527900536   7.244032237   9.999983878
B        5.023106153  10.143995962  10.000021783
N        6.273892638   9.418373909   9.999984249
B        3.768242416  12.316811708  10.000020780
N        5.035711612  11.608845135   9.999985285
B       12.549619642   1.467731200  10.000015307
N       13.864907355   0.761182325   9.999957188
B       11.278669849   3.629472861  10.000021761
N       12.546632346   2.897414373   9.999983871
B       10.034127866   5.796793049  10.000020285
N       11.292855196   5.069286543   9.999984249
B        8.782583885   7.964530812  10.000020285
N       10.037310086   7.243788813   9.999984101
B        7.527900536  10.125995880  10.000021761
N        8.781908434   9.418373909   9.999984249
B        6.291252237  12.307541518  10.000015307
N        7.527900536  11.590112857   9.999983871
C        0.000000000   1.448745133   9.999950244
End final coordinates



     Writing output data file aiida.save
 
     init_run     :     11.73s CPU     12.04s WALL (       1 calls)
     electrons    :   1922.07s CPU   1968.58s WALL (       9 calls)
     update_pot   :     23.63s CPU     24.11s WALL (       8 calls)
     forces       :     40.22s CPU     42.00s WALL (       9 calls)
     stress       :    207.94s CPU    209.87s WALL (       9 calls)

     Called by init_run:
     wfcinit      :      6.10s CPU      6.18s WALL (       1 calls)
     wfcinit:atom :      0.05s CPU      0.05s WALL (       3 calls)
     wfcinit:wfcr :      5.89s CPU      5.96s WALL (       3 calls)
     potinit      :      2.68s CPU      2.72s WALL (       2 calls)

     Called by electrons:
     c_bands      :   1487.84s CPU   1511.60s WALL (     114 calls)
     sum_band     :    320.64s CPU    332.26s WALL (     114 calls)
     v_of_rho     :     47.25s CPU     47.70s WALL (     120 calls)
     v_h          :      2.19s CPU      2.20s WALL (     120 calls)
     v_xc         :     51.64s CPU     52.14s WALL (     138 calls)
     newd         :     41.53s CPU     51.84s WALL (     120 calls)
     PAW_pot      :      8.86s CPU      8.96s WALL (     128 calls)
     mix_rho      :     10.03s CPU     10.10s WALL (     114 calls)

     Called by c_bands:
     init_us_2    :     11.84s CPU     11.94s WALL (     765 calls)
     cegterg      :   1394.43s CPU   1416.55s WALL (     342 calls)

     Called by sum_band:
     sum_band:bec :      0.25s CPU      0.26s WALL (     366 calls)
     addusdens    :     62.08s CPU     71.20s WALL (     114 calls)

     Called by *egterg:
     h_psi        :    956.63s CPU    964.21s WALL (    1693 calls)
     s_psi        :     79.58s CPU     79.73s WALL (    1693 calls)
     g_psi        :      2.26s CPU      2.27s WALL (    1348 calls)
     cdiaghg      :    153.52s CPU    153.94s WALL (    1654 calls)
     cegterg:over :     81.36s CPU     82.71s WALL (    1348 calls)
     cegterg:upda :     56.16s CPU     56.36s WALL (    1348 calls)
     cegterg:last :     25.68s CPU     25.72s WALL (     357 calls)

     Called by h_psi:
     h_psi:pot    :    946.69s CPU    954.18s WALL (    1693 calls)
     h_psi:calbec :     80.77s CPU     81.70s WALL (    1693 calls)
     vloc_psi     :    786.20s CPU    792.52s WALL (    1693 calls)
     add_vuspsi   :     79.69s CPU     79.93s WALL (    1693 calls)

     General routines
     calbec       :    120.79s CPU    122.19s WALL (    2194 calls)
     fft          :     61.07s CPU     62.11s WALL (    4050 calls)
     ffts         :      2.22s CPU      2.26s WALL (     468 calls)
     fftw         :    761.08s CPU    767.46s WALL (  395874 calls)
     interpolate  :     10.20s CPU     10.30s WALL (     468 calls)
     davcio       :      0.00s CPU      0.02s WALL (       3 calls)
 
     Parallel routines
     fft_scatter  :    564.18s CPU    570.74s WALL (  400392 calls)

     PAW routines
     PAW_pot      :      8.86s CPU      8.96s WALL (     128 calls)
     PAW_symme    :      0.21s CPU      0.21s WALL (     242 calls)
 
     PWSCF        : 36m56.21s CPU    37m50.01s WALL

 
   This run was terminated on:  21: 2:59  29Feb2020            

=------------------------------------------------------------------------------=
   JOB DONE.
=------------------------------------------------------------------------------=
